/*--------------------------------*- C++ -*----------------------------------*\
| =========                 |                                                 |
| \\      /  F ield         | OpenFOAM: The Open Source CFD Toolbox           |
|  \\    /   O peration     | Version:  2406                                  |
|   \\  /    A nd           | Website:  www.openfoam.com                      |
|    \\/     M anipulation  |                                                 |
\*---------------------------------------------------------------------------*/
FoamFile
{
    version     2.0;
    format      ascii;
    arch        "LSB;label=32;scalar=64";
    class       volScalarField;
    location    "250";
    object      epsilon;
}
// * * * * * * * * * * * * * * * * * * * * * * * * * * * * * * * * * * * * * //

dimensions      [0 2 -3 0 0 0 0];

internalField   nonuniform List<scalar> 
150387
(
0.00027884577
2.1549568e-05
1.4679742e-05
1.3018699e-05
2.675694e-05
4.560051e-05
6.6671653e-05
0.00012866432
0.00024244011
2.6197583e-05
1.995981e-05
1.8171637e-05
1.7438277e-05
1.665549e-05
2.0526876e-05
4.1026536e-05
5.0159289e-05
6.8206358e-05
0.00010627808
0.00014991335
6.6781542e-05
2.7304232e-05
2.3812017e-05
2.323711e-05
2.404688e-05
2.415754e-05
2.4124075e-05
2.2820238e-05
2.4525166e-05
4.7324192e-05
6.0746701e-05
7.7579398e-05
0.00013798061
0.00022367942
9.5903513e-05
4.1427139e-05
1.9501978e-05
0.00037233651
3.1857117e-05
2.9458422e-05
3.2399251e-05
3.3906355e-05
3.343264e-05
3.1856662e-05
2.9751958e-05
2.7108981e-05
2.6478388e-05
4.7805032e-05
6.9867814e-05
8.7638097e-05
0.00013292277
0.00017417641
8.3859277e-05
9.0512338e-05
5.6212632e-05
3.5083568e-05
0.00045600421
3.5379527e-05
4.5426882e-05
5.3211219e-05
5.3762567e-05
5.0506969e-05
4.5309071e-05
3.9095693e-05
3.431131e-05
2.9983545e-05
2.8034517e-05
4.3671939e-05
6.9476768e-05
8.7666744e-05
0.00011132181
0.00011737778
7.1133995e-05
0.00010254434
8.0584221e-05
3.5944405e-05
2.0888293e-05
4.9958249e-05
8.1009574e-05
0.00010105024
9.62427e-05
8.2641479e-05
6.7476916e-05
5.4533884e-05
4.5199408e-05
3.8375089e-05
3.2300053e-05
3.0442784e-05
4.0237718e-05
6.1649633e-05
7.9066237e-05
9.0948114e-05
8.2154027e-05
6.5487868e-05
9.1024726e-05
8.740008e-05
4.80295e-05
2.2008396e-05
3.1776782e-05
4.0667642e-05
0.00011141733
0.00014376078
0.000135171
0.00011179457
8.9498567e-05
7.1729367e-05
5.9109749e-05
4.9855231e-05
4.2053287e-05
3.4353113e-05
3.5778538e-05
4.7738366e-05
5.6830757e-05
6.7742677e-05
7.4010759e-05
6.6174641e-05
6.1386501e-05
7.5761864e-05
7.7270719e-05
5.1549619e-05
2.7422124e-05
1.8976628e-05
5.1657536e-05
0.00018442735
9.4991428e-05
0.00012596732
0.00012904535
0.00011574593
9.9797384e-05
8.5508168e-05
7.3169913e-05
6.3305577e-05
5.5478961e-05
4.697173e-05
3.6889051e-05
4.3309435e-05
6.8501347e-05
6.6856747e-05
6.2135094e-05
6.1884296e-05
5.7503505e-05
5.6114389e-05
6.1993551e-05
6.3644511e-05
4.8633507e-05
3.0580602e-05
1.9045745e-05
1.5601514e-05
0.00022637002
0.00037007008
0.00028737197
0.00018703066
0.00013003734
0.00010266674
8.7673914e-05
7.7690197e-05
7.1727785e-05
6.7128991e-05
5.6814092e-05
4.059275e-05
4.8194536e-05
8.497034e-05
8.4973758e-05
6.7065722e-05
5.5851781e-05
5.1108652e-05
4.9533055e-05
5.0333513e-05
5.0784111e-05
4.2527418e-05
3.0427959e-05
2.0367862e-05
1.3970389e-05
2.6968861e-05
0.00023965809
0.00034590096
0.0003024403
0.00022339132
0.00016038403
0.00012170811
0.00010000639
9.1727694e-05
9.47269e-05
9.4960337e-05
7.9074042e-05
5.0326911e-05
4.3915585e-05
7.9474902e-05
8.8379779e-05
7.0374973e-05
5.2727834e-05
4.5382099e-05
4.2831359e-05
4.1254564e-05
4.0031557e-05
3.5413379e-05
2.807345e-05
2.0465837e-05
1.4092549e-05
1.27958e-05
0.00010651122
0.00013958076
0.00018391996
0.00018981449
0.0001673749
0.00014126887
0.00011851843
0.0001069977
0.00011997132
0.00014277032
0.00014175946
0.00011366152
7.1371448e-05
3.7963226e-05
5.2058671e-05
6.9999169e-05
6.0525205e-05
4.4924352e-05
3.8181256e-05
3.5894362e-05
3.4141415e-05
3.2120881e-05
2.8921981e-05
2.4479728e-05
1.9315378e-05
1.402263e-05
1.0810605e-05
0.00010263874
9.0756247e-05
0.00010021187
0.00011714135
0.00012170323
0.00011361931
0.00010655004
0.00012929849
0.00017962206
0.0002052632
0.00018775448
0.00014627451
9.099992e-05
4.2987208e-05
2.4441165e-05
3.9078717e-05
3.9014148e-05
3.4173041e-05
3.4114893e-05
3.3325755e-05
3.0775267e-05
2.7684096e-05
2.4573094e-05
2.1637248e-05
1.8229548e-05
1.3484934e-05
8.4120294e-06
1.7499764e-05
6.6548004e-05
6.3667885e-05
7.5545611e-05
8.9174529e-05
9.3176633e-05
8.9736332e-05
0.00011158244
0.0001753712
0.00023506634
0.00024548488
0.00021301195
0.00015998184
9.0411092e-05
2.897088e-05
9.6294846e-06
2.001664e-05
3.0079108e-05
4.4613496e-05
5.5194904e-05
5.4224917e-05
4.4241067e-05
3.2805743e-05
2.4868973e-05
2.0618309e-05
1.8003925e-05
1.5454342e-05
1.1903559e-05
8.0476876e-06
3.6094188e-05
4.5799836e-05
6.0899502e-05
6.6852992e-05
6.4705427e-05
7.12871e-05
0.00011575157
0.00018909832
0.00023536131
0.00023453189
0.00019733019
0.00013794407
5.9879767e-05
2.3129401e-05
6.7549785e-06
1.4292345e-05
3.4106703e-05
6.2789088e-05
7.9375193e-05
7.9214899e-05
6.3593541e-05
4.4341126e-05
3.4364071e-05
3.528511e-05
3.8909215e-05
3.9224327e-05
3.3469897e-05
1.1613517e-05
1.8629735e-05
3.2174636e-05
3.9402406e-05
3.7224815e-05
3.463526e-05
4.5773877e-05
8.2842765e-05
0.00013336088
0.00017084103
0.00017261209
0.00013688889
7.778011e-05
3.2217095e-05
1.5665821e-05
2.5346666e-05
1.9901709e-05
2.5858285e-05
5.4754588e-05
7.459299e-05
7.3480312e-05
6.0209727e-05
5.0650263e-05
5.2960808e-05
5.9969775e-05
6.2045011e-05
5.5970592e-05
3.9047613e-05
4.6532263e-05
5.4614531e-06
1.5805707e-05
2.1127556e-05
2.4649655e-05
2.8071822e-05
3.2474648e-05
4.1587682e-05
5.6612749e-05
7.2089478e-05
7.3316078e-05
5.706248e-05
4.623007e-05
7.4833438e-05
0.00010114706
9.8023196e-05
6.9649279e-05
3.8715241e-05
3.6689111e-05
5.0758002e-05
5.4257127e-05
5.2986988e-05
5.7245652e-05
6.6183734e-05
7.3469089e-05
7.2223748e-05
6.2299672e-05
4.8707999e-05
6.9075331e-05
5.2057553e-06
1.3931673e-05
2.0931787e-05
2.6909399e-05
3.1513433e-05
3.5541721e-05
3.8874046e-05
4.1774313e-05
4.3773638e-05
4.5160003e-05
5.2247916e-05
8.8528369e-05
0.00014309215
0.00017360342
0.00016814977
0.00013101481
7.3197323e-05
3.7339709e-05
3.9665028e-05
4.7213541e-05
5.3546589e-05
6.2506467e-05
7.4693284e-05
8.6843485e-05
9.4581659e-05
8.7346568e-05
7.1379869e-05
0.00016744792
2.3711713e-05
1.5636547e-05
2.1295832e-05
2.9378263e-05
3.7398836e-05
4.3815934e-05
4.7685494e-05
5.0107081e-05
5.2331967e-05
5.6889488e-05
7.3671027e-05
0.00012211034
0.00018802629
0.00022761256
0.00022159227
0.00017733489
0.0001056621
4.5507247e-05
3.9889476e-05
4.7118062e-05
5.3635405e-05
6.1512137e-05
7.4724518e-05
0.0001015658
0.00013164255
0.00013833319
9.7061325e-05
1.8579759e-05
2.084463e-05
3.1394504e-05
4.5133819e-05
5.6059429e-05
5.9865843e-05
6.0692352e-05
6.1984012e-05
6.6526745e-05
8.0121215e-05
0.00012404124
0.00020082823
0.00025488853
0.00025209598
0.00020029671
0.00011705576
4.7926391e-05
4.0615013e-05
4.7299436e-05
5.3276387e-05
5.8061795e-05
6.471201e-05
9.0531932e-05
0.0001518364
0.00019094751
7.420325e-05
2.4991549e-05
2.0488026e-05
3.1285432e-05
5.0653489e-05
7.1274463e-05
7.6816609e-05
7.3521784e-05
7.1922002e-05
7.6328561e-05
8.3913688e-05
0.00010597433
0.00017033217
0.00023602878
0.00024075147
0.00018858797
0.00010251538
4.3302258e-05
4.0125655e-05
4.8540112e-05
5.8473614e-05
6.712172e-05
6.9561325e-05
6.485078e-05
6.1029659e-05
6.380571e-05
2.3330797e-05
2.2233603e-05
2.8811176e-05
5.1558501e-05
8.7268576e-05
9.7127675e-05
8.8214905e-05
8.2461604e-05
9.0906678e-05
9.7085731e-05
9.7096299e-05
0.00012019615
0.00017287984
0.00018802888
0.00014430184
7.2479902e-05
3.575007e-05
3.8270691e-05
5.0858187e-05
6.8177613e-05
8.7742189e-05
0.00010555576
0.00011149868
8.4150921e-05
3.6305898e-05
3.9725244e-05
2.5816963e-05
4.6744024e-05
9.795153e-05
0.00012047109
0.000104369
9.6729872e-05
0.00011746079
0.00012072129
0.00010777041
9.6347456e-05
0.00010639387
0.00011591041
8.9546649e-05
4.3049291e-05
2.8796817e-05
3.5522596e-05
4.9570826e-05
6.7546467e-05
8.4641286e-05
9.2078848e-05
7.4655085e-05
4.727014e-05
6.7442439e-05
3.3438423e-05
3.6184019e-05
9.2868479e-05
0.00014029798
0.00011836352
0.00012696534
0.00016731038
0.00015054692
0.00012340626
0.00010025591
8.0377559e-05
6.7420112e-05
4.5681163e-05
2.5981888e-05
2.3222807e-05
3.0337662e-05
4.0548987e-05
5.0082624e-05
5.2686837e-05
4.42061e-05
2.9900952e-05
4.3285874e-05
3.2136385e-05
6.2525281e-05
0.00013602634
0.00012216417
0.00019366354
0.00024178993
0.00018280783
0.00013045702
0.00010292846
8.1988899e-05
5.7454708e-05
2.8667602e-05
1.7904872e-05
1.8956043e-05
2.3485505e-05
2.8044373e-05
2.9109127e-05
2.5340481e-05
2.0229511e-05
2.7921808e-05
4.1259455e-05
8.2448879e-05
9.9299616e-05
0.00029331685
0.00031869301
0.00020309039
0.00012351498
9.2509913e-05
7.8041124e-05
5.8849283e-05
3.0964706e-05
1.3244216e-05
1.4632279e-05
1.6694799e-05
1.6993075e-05
1.6249225e-05
1.8396997e-05
4.0906237e-05
3.2382388e-05
6.5820867e-05
0.00032688625
0.00032592932
0.00017930716
0.00010485757
7.655461e-05
6.4662199e-05
5.2937025e-05
3.4331025e-05
1.0851476e-05
9.4673537e-06
1.0293033e-05
1.0501963e-05
1.4987826e-05
7.9390358e-05
8.1040659e-05
0.00013213104
0.00012600087
0.00010396926
7.5572584e-05
4.7424618e-05
3.442239e-05
2.6686482e-05
9.9750512e-06
4.7145874e-06
9.3235209e-06
2.4850915e-05
0.00018345853
8.6962406e-05
6.2642969e-05
4.3136113e-05
2.4900925e-05
9.2804309e-06
8.0807594e-05
2.3714604e-05
1.1471489e-05
9.8200864e-06
9.8821854e-06
8.6674891e-06
1.5095799e-05
4.9947349e-05
0.00025941614
2.8065504e-05
1.1902433e-05
1.1237652e-05
1.1112746e-05
1.1399534e-05
1.4633609e-05
2.4444258e-05
2.680971e-05
3.9597786e-05
0.0001241657
0.0002800819
0.00037023457
0.00014551464
9.0679976e-05
5.817851e-05
1.9056949e-05
1.8744098e-05
1.9044814e-05
1.8908221e-05
1.8220786e-05
1.7152523e-05
1.8216569e-05
2.8771122e-05
3.8842778e-05
5.0516112e-05
0.00012594241
0.00028226975
0.00037937897
0.00018334443
0.00013859498
5.5598443e-05
4.9367523e-05
4.4077658e-05
4.7629203e-05
4.5960169e-05
4.0773148e-05
3.4623329e-05
2.8752781e-05
2.3765371e-05
2.186616e-05
2.9263735e-05
4.3461473e-05
5.7142727e-05
0.00012159559
0.00022921146
0.00027266777
0.00018268017
0.00021874235
0.00012737077
4.1252353e-05
6.9815114e-05
0.00010330591
0.0001207675
0.00011588354
9.7140412e-05
7.4768524e-05
5.5109138e-05
4.0538893e-05
3.0346535e-05
2.5381893e-05
2.9668313e-05
4.3511875e-05
5.9136602e-05
0.00010309213
0.00015885886
0.00017141961
0.00016032999
0.00022494328
0.00015905678
6.151872e-05
2.6065458e-05
0.00011926514
0.00019914958
0.00025349409
0.00024678704
0.00020055882
0.00014644372
0.00010175329
7.000997e-05
4.867858e-05
3.4894692e-05
2.8223513e-05
3.2203657e-05
4.5145205e-05
5.7201554e-05
7.97851e-05
0.00010182876
0.00010778757
0.00013034831
0.00018464602
0.00015159185
6.9902585e-05
2.5283837e-05
2.0309202e-05
0.00022951538
0.0003539002
0.00036626922
0.000303208
0.0002219971
0.00015452481
0.00010547638
7.2058868e-05
5.0589205e-05
3.7086592e-05
3.0665361e-05
3.7944252e-05
5.2961398e-05
5.7511245e-05
6.2020972e-05
6.7543569e-05
7.3119828e-05
0.00010014032
0.00013379019
0.00011947999
6.6653771e-05
2.6901876e-05
1.1763503e-05
2.8289781e-05
0.00012744657
0.00036521621
0.00037559853
0.00031520386
0.00024170082
0.00017569653
0.00012436725
8.854262e-05
6.5398607e-05
5.103758e-05
4.0485636e-05
3.3973367e-05
4.5301037e-05
6.4954671e-05
6.4754917e-05
5.49856e-05
5.0263569e-05
5.4314098e-05
7.3310474e-05
9.2009869e-05
8.5934093e-05
5.6154799e-05
2.6867819e-05
1.2391196e-05
1.2018474e-05
0.00064309698
0.00071225463
0.00054771267
0.00036101115
0.00022716503
0.00014638576
0.00010132296
7.8002793e-05
6.7738987e-05
6.1960313e-05
5.1963723e-05
4.0245228e-05
5.0004308e-05
7.2919796e-05
7.3645693e-05
5.6380283e-05
4.3331944e-05
4.273987e-05
5.2601061e-05
6.241136e-05
5.94603e-05
4.3855624e-05
2.5418875e-05
1.3588644e-05
9.1292032e-06
2.5123321e-05
0.00050585611
0.00052073539
0.00055719517
0.00045830855
0.0003241245
0.00020935742
0.00013563362
9.8919478e-05
8.8854855e-05
9.1080345e-05
8.9041372e-05
7.4596234e-05
5.221936e-05
4.9119063e-05
6.9433042e-05
7.4432196e-05
5.7421228e-05
4.0352121e-05
3.4662847e-05
3.7900679e-05
4.2385661e-05
4.1175552e-05
3.3146817e-05
2.2625065e-05
1.4089883e-05
8.7520549e-06
9.379898e-06
0.00029919908
0.00027849785
0.00028181532
0.00025937451
0.00020941153
0.00015528982
0.00011829055
0.00010885994
0.00011973614
0.00012804651
0.00012072356
9.932679e-05
6.9518028e-05
4.6919922e-05
5.3859167e-05
6.2783522e-05
4.993459e-05
3.5116068e-05
2.9123221e-05
2.9025105e-05
3.0113846e-05
2.917643e-05
2.5078615e-05
1.9241553e-05
1.3494277e-05
8.3356983e-06
6.8021386e-06
0.0001941581
0.00011976581
0.0001114429
0.00011383675
0.00011081213
0.000103838
0.0001088575
0.00013187781
0.00015280333
0.00015503008
0.000139797
0.00011332239
7.9899923e-05
4.6626303e-05
3.3924763e-05
4.250086e-05
3.7599941e-05
3.4298338e-05
3.3572597e-05
3.1696651e-05
2.8693067e-05
2.5357615e-05
2.1990692e-05
1.8552188e-05
1.4983616e-05
1.0705084e-05
6.8781839e-06
2.7873706e-05
0.00011651504
6.3420229e-05
5.073662e-05
5.6290849e-05
6.6542738e-05
8.372383e-05
0.00011500367
0.00014821372
0.00016484665
0.00016157199
0.00014299448
0.00011196851
8.4920563e-05
4.4020412e-05
1.6809931e-05
2.7369652e-05
4.0529731e-05
5.2050505e-05
5.548388e-05
5.1175005e-05
4.264659e-05
3.4254847e-05
2.8893717e-05
2.6391601e-05
2.4622932e-05
2.0799487e-05
1.3296904e-05
8.3779548e-06
5.0612494e-05
3.4521579e-05
3.6462403e-05
4.2729741e-05
5.1035447e-05
7.1794279e-05
0.00010449871
0.00013527489
0.00015086553
0.00014778526
0.0001277554
9.2662344e-05
6.5843388e-05
0.0001163725
6.4405491e-06
2.5585389e-05
4.6555609e-05
6.4785491e-05
7.0301836e-05
6.5192274e-05
5.4688065e-05
4.4950036e-05
3.9519096e-05
3.7243748e-05
3.3307484e-05
2.4706534e-05
1.3773931e-05
6.2716371e-06
1.7264465e-05
2.1360652e-05
2.9297991e-05
3.1297956e-05
3.350088e-05
4.3817263e-05
6.4888491e-05
8.9005339e-05
0.00010523289
0.00010478492
8.7448729e-05
6.2800492e-05
4.5868335e-05
4.8641525e-05
4.7263618e-05
4.3588886e-05
4.0368312e-05
5.3626902e-05
6.0350963e-05
5.7273975e-05
5.1164617e-05
4.8082738e-05
4.807367e-05
4.6354276e-05
4.0864933e-05
3.4533337e-05
2.4240802e-05
2.0726021e-05
7.446624e-06
1.7847413e-05
2.2812456e-05
2.5849751e-05
2.8511042e-05
3.1811124e-05
3.7298669e-05
4.5206506e-05
5.0965005e-05
5.2146267e-05
5.1835133e-05
6.7671383e-05
9.1796564e-05
0.00010207668
9.6398217e-05
7.6245963e-05
4.662385e-05
3.6758304e-05
4.0818035e-05
4.2734988e-05
4.631057e-05
5.5542901e-05
6.8452295e-05
7.7363025e-05
7.6784206e-05
7.0237232e-05
4.7884978e-05
3.6208117e-05
7.7710936e-06
1.1531173e-05
1.8845558e-05
2.7015801e-05
3.4977946e-05
4.061544e-05
4.2089141e-05
4.0057023e-05
3.770651e-05
4.1114404e-05
6.0742734e-05
9.7457992e-05
0.0001263059
0.00013572236
0.00012829038
0.00010557091
6.4527041e-05
3.3548977e-05
3.112614e-05
3.6751446e-05
4.7090474e-05
6.7526947e-05
0.00010068134
0.00013767307
0.00015869585
0.00015691256
0.00010627327
2.0560955e-05
1.1216806e-05
1.9377216e-05
3.2178559e-05
4.7547791e-05
5.948032e-05
6.2161659e-05
5.6271185e-05
4.9270253e-05
5.1306807e-05
7.3091709e-05
0.00011272447
0.00014523179
0.00015638044
0.00014812177
0.00012309085
7.7178627e-05
3.7444289e-05
3.2611759e-05
3.9912046e-05
5.2009335e-05
7.7015379e-05
0.00012678502
0.00020139948
0.00027179225
0.00027748845
0.00016797763
1.1738574e-05
1.898216e-05
3.6883793e-05
6.3966733e-05
8.7041304e-05
9.3024425e-05
8.139065e-05
6.610428e-05
6.1579806e-05
7.5338489e-05
0.00011074491
0.00014835889
0.00016375576
0.00015515862
0.00012616469
7.6562856e-05
3.9238776e-05
3.8692333e-05
5.1363363e-05
6.7285802e-05
9.0515798e-05
0.00013217829
0.00020812641
0.00030419051
0.00031227086
0.00010441327
1.2747243e-05
1.7860857e-05
3.9780757e-05
8.3036533e-05
0.00012673499
0.00013810237
0.00011765585
9.1259444e-05
8.0392645e-05
8.2405433e-05
0.00010006032
0.00013352554
0.000154216
0.00014635634
0.00011374764
6.4376864e-05
3.7604975e-05
4.6253396e-05
6.7477674e-05
9.4172598e-05
0.000123201
0.00014646722
0.00015155923
0.00013539468
0.0001180561
0.00012332658
6.5168848e-05
1.6973097e-05
4.0103141e-05
9.8841575e-05
0.0001758911
0.00020129112
0.00016729025
0.00013235795
0.0001187959
0.00010720167
9.7473896e-05
0.00010764443
0.00012628628
0.0001219121
8.8930053e-05
4.6764494e-05
3.5060577e-05
5.0340704e-05
7.6004946e-05
0.00011198106
0.00015736488
0.00019744433
0.00019643052
0.00012175655
3.1766818e-05
2.0589289e-05
3.6979222e-05
0.00010265911
0.00022022285
0.00027834115
0.00022638777
0.00020330937
0.0001906202
0.00015449193
0.00011085568
8.7687809e-05
9.06047e-05
8.8422768e-05
5.9718532e-05
3.1792836e-05
3.1440149e-05
4.6830767e-05
6.8309452e-05
9.5019917e-05
0.00012214165
0.00013306796
0.00010814737
6.6126038e-05
2.7275656e-05
8.8143559e-05
0.00022817341
0.00033877445
0.00028957588
0.00032107646
0.0003042339
0.000218976
0.00013032623
7.8945395e-05
6.4021784e-05
5.7311191e-05
3.6451308e-05
2.2718099e-05
2.6243621e-05
3.6519286e-05
4.734344e-05
5.4582333e-05
5.4541738e-05
4.7168438e-05
3.7717319e-05
3.8772523e-05
4.083058e-05
0.00017931796
0.00032714835
0.00033729351
0.00049074082
0.00044153005
0.00028007924
0.00014111912
7.1101673e-05
4.9782206e-05
3.9933139e-05
2.4976862e-05
1.8077783e-05
2.0296972e-05
2.4994554e-05
2.7355785e-05
2.5430528e-05
2.1762262e-05
1.9593731e-05
2.9230743e-05
7.2274669e-05
0.00020601889
0.00031465029
0.00064215978
0.00054359604
0.0003067815
0.00014011723
6.6248679e-05
4.2019216e-05
3.2072812e-05
2.1957156e-05
1.4923496e-05
1.4070299e-05
1.5534751e-05
1.4842799e-05
1.2469171e-05
1.3255729e-05
3.0664767e-05
2.9857163e-05
0.00011576251
0.00058042058
0.00049860632
0.00029210075
0.0001438036
7.8743463e-05
4.3978341e-05
2.6766397e-05
1.9267031e-05
1.1673136e-05
7.5272127e-06
8.1992767e-06
9.2847964e-06
1.5081103e-05
0.00012189993
0.00025669929
0.00024842414
0.00015665078
9.7736953e-05
5.2131589e-05
2.6887765e-05
1.5042596e-05
1.089636e-05
5.0062743e-06
8.5544668e-06
3.708766e-05
0.00034606225
0.00014711567
7.3822545e-05
2.8515734e-05
1.8337316e-05
7.5006771e-05
2.6781752e-05
1.3463555e-05
1.2200764e-05
1.2957231e-05
8.6388152e-06
4.9851189e-05
0.00010292178
0.00051631825
2.8047947e-05
1.4759652e-05
1.3422362e-05
1.2852721e-05
1.3074783e-05
1.7200462e-05
2.4506033e-05
2.2120954e-05
3.4511223e-05
0.00016923373
0.00046889213
0.00064728724
0.00031906494
0.00024783029
6.6058705e-05
2.6014831e-05
2.6419791e-05
2.5574996e-05
2.4011575e-05
2.1919826e-05
1.9421293e-05
1.979716e-05
2.7872765e-05
3.3275972e-05
4.0571514e-05
0.00015286593
0.0004408819
0.00062682605
0.00035364993
0.00026065403
0.00011546291
6.6915252e-05
6.7211324e-05
7.2575348e-05
6.7389583e-05
5.656122e-05
4.5083998e-05
3.5208897e-05
2.7381066e-05
2.3708834e-05
2.9603691e-05
4.0924625e-05
5.2964932e-05
0.0001524945
0.00034822802
0.00044890591
0.00034432768
0.00037227921
0.00021959141
6.8874339e-05
0.00010902652
0.00016550918
0.00019189236
0.0001792411
0.00014381715
0.00010422865
7.2184205e-05
5.0003633e-05
3.5331791e-05
2.8127765e-05
3.1810636e-05
4.5351647e-05
6.1804825e-05
0.00013317157
0.00023721246
0.00028505112
0.00028957545
0.00036514005
0.00025672081
9.9194697e-05
3.5909067e-05
0.00024824957
0.000340846
0.00040517116
0.00037817012
0.00029800962
0.00021090849
0.00014043404
9.1619083e-05
6.0084333e-05
4.0783484e-05
3.1964091e-05
3.5806518e-05
5.0487457e-05
6.4466747e-05
0.00010207197
0.00014716114
0.00017578045
0.00022191475
0.00028991189
0.00023283404
0.0001116742
3.7811132e-05
2.3231462e-05
0.00041457061
0.00058446221
0.0005779493
0.00046755955
0.00033640482
0.00022599035
0.00014653238
9.3866686e-05
6.1502991e-05
4.2916343e-05
3.5255823e-05
4.2066624e-05
5.8757205e-05
6.6226607e-05
7.6179533e-05
9.1053739e-05
0.00011170825
0.00015887543
0.00020352133
0.00017703279
0.0001021646
3.953661e-05
1.5805271e-05
3.3160779e-05
0.00029224653
0.00064386654
0.00064673258
0.00053250069
0.00039587518
0.0002758899
0.00018428943
0.00012124708
8.1691198e-05
5.8796576e-05
4.5398824e-05
3.9319574e-05
4.9275493e-05
6.8281374e-05
7.1367322e-05
6.3755355e-05
6.2450018e-05
7.5628916e-05
0.00010780401
0.00013335928
0.00012144208
8.0391997e-05
3.7502335e-05
1.7047292e-05
1.5340767e-05
0.0010379991
0.0010936053
0.00083774245
0.00055721395
0.00035156439
0.00021893734
0.00014024197
9.6746215e-05
7.5414317e-05
6.5178556e-05
5.5684761e-05
4.6466544e-05
5.4490756e-05
7.4456251e-05
7.7083448e-05
6.18767e-05
5.0387752e-05
5.4541029e-05
7.1509481e-05
8.5051686e-05
7.9903224e-05
5.8965694e-05
3.3818261e-05
1.8239271e-05
1.1960449e-05
2.6104695e-05
0.001099892
0.00086252263
0.0008564667
0.00067583752
0.00046714043
0.00029557355
0.00018197764
0.00012014731
9.6186105e-05
9.1509842e-05
8.820872e-05
7.670752e-05
5.8748457e-05
5.5850393e-05
7.2285683e-05
7.7303758e-05
6.1496844e-05
4.5228824e-05
4.1606159e-05
4.7904957e-05
5.4292249e-05
5.2775559e-05
4.2570482e-05
2.9055247e-05
1.8332493e-05
1.1188664e-05
1.154999e-05
0.00063867994
0.00046986714
0.00042127561
0.00035983398
0.00028099084
0.0002014617
0.00014337253
0.00011880142
0.00011925425
0.00012329911
0.00011742002
0.00010000112
7.4889389e-05
5.5535591e-05
6.0933311e-05
6.8140073e-05
5.5149517e-05
4.0207478e-05
3.4407564e-05
3.5001598e-05
3.6695744e-05
3.5764045e-05
3.0858892e-05
2.3723772e-05
1.6669617e-05
1.0492149e-05
8.4918389e-06
0.00041729224
0.00020292596
0.0001425804
0.0001312395
0.00012710399
0.00011859717
0.0001190548
0.00013397757
0.00014820765
0.00014897165
0.00013640476
0.00011375396
8.5216627e-05
5.5538664e-05
4.3754334e-05
5.0642923e-05
4.5012097e-05
4.065004e-05
3.8913272e-05
3.6708193e-05
3.3565239e-05
3.0029502e-05
2.6013624e-05
2.1621073e-05
1.7269231e-05
1.3198813e-05
1.0417674e-05
3.5859437e-05
0.00025847134
0.00010062494
5.3254465e-05
5.2491246e-05
6.5670863e-05
8.8139531e-05
0.00011805807
0.00014450632
0.00015712054
0.00015407666
0.00013850143
0.00011114892
8.6232624e-05
5.2930895e-05
2.6354576e-05
3.6024572e-05
4.8061531e-05
5.7165202e-05
5.886892e-05
5.44164e-05
4.6827402e-05
3.9091099e-05
3.3217495e-05
2.9202382e-05
2.5878754e-05
2.1108776e-05
1.5124739e-05
1.1568687e-05
8.9485196e-05
3.7582366e-05
3.2692883e-05
4.0893223e-05
5.3813135e-05
7.5179357e-05
0.00010208005
0.00012585944
0.00013896074
0.00013798598
0.00012248314
9.3235851e-05
7.122126e-05
0.00021332569
1.5249959e-05
3.4897893e-05
5.3930583e-05
6.8075693e-05
7.1304818e-05
6.6683884e-05
5.8438725e-05
5.0154295e-05
4.3789903e-05
3.8282245e-05
3.104387e-05
2.0233463e-05
1.0270212e-05
7.8935491e-06
3.0947938e-05
1.970543e-05
2.8253118e-05
3.2899842e-05
3.7168497e-05
4.6835896e-05
6.3492676e-05
8.1888009e-05
9.5363676e-05
9.7379406e-05
8.6760614e-05
7.0091633e-05
5.7541115e-05
8.1866736e-05
5.9153413e-05
5.2469529e-05
4.8607145e-05
5.763246e-05
6.1924739e-05
5.9729726e-05
5.5855809e-05
5.331476e-05
5.0676573e-05
4.3686537e-05
3.4288807e-05
2.8803296e-05
2.0243991e-05
2.6070937e-05
7.5185166e-06
1.9163236e-05
2.4641861e-05
2.8904459e-05
3.2758211e-05
3.6571591e-05
4.1311602e-05
4.7618819e-05
5.2130484e-05
5.4737965e-05
5.8132281e-05
7.2963969e-05
9.2310843e-05
0.00010110196
9.6552566e-05
7.84394e-05
5.2203771e-05
4.2181246e-05
4.4443159e-05
4.7502871e-05
5.4258775e-05
6.7540166e-05
8.3119474e-05
9.0161892e-05
8.3389409e-05
7.55929e-05
5.496889e-05
9.9088197e-05
9.875309e-06
1.4219396e-05
2.2835074e-05
3.2784128e-05
4.2532779e-05
4.9245686e-05
5.0618424e-05
4.7684948e-05
4.3901013e-05
4.6003727e-05
6.2959477e-05
9.4635474e-05
0.00012108378
0.00013067107
0.00012411851
0.0001017195
6.4145495e-05
3.8190219e-05
3.567772e-05
4.3571292e-05
5.996153e-05
9.2186591e-05
0.00014196146
0.00019470888
0.00022594237
0.00023842524
0.0001673741
2.4607686e-05
1.4285267e-05
2.5323364e-05
4.1419646e-05
6.0963532e-05
7.580321e-05
7.917866e-05
7.1271547e-05
5.9904192e-05
5.676465e-05
7.3101587e-05
0.00010624265
0.00013636948
0.000147883
0.00013990451
0.00011394526
7.1696522e-05
4.0926777e-05
3.8660515e-05
5.0898172e-05
7.2712318e-05
0.00011694108
0.00019933621
0.00031914405
0.00043666055
0.00047081789
0.00032859979
1.5513279e-05
2.6118445e-05
4.9991292e-05
8.6643692e-05
0.00011668334
0.00012593064
0.00011069261
8.6725478e-05
7.292382e-05
7.9037586e-05
0.00010617182
0.00013902238
0.00015353786
0.00014385142
0.00011366409
6.952205e-05
4.3296567e-05
4.8524833e-05
6.9995074e-05
0.00010050817
0.0001479622
0.00022787375
0.00035886204
0.00052110538
0.00056241352
0.00025048205
1.5366187e-05
2.5381513e-05
5.7078485e-05
0.00011974905
0.00017795426
0.00019808878
0.00017182595
0.00013035861
0.00010431284
9.5040059e-05
0.00010309908
0.00012850215
0.00014505251
0.00013490376
0.00010192695
6.0087645e-05
4.3450603e-05
5.9874688e-05
9.3598093e-05
0.00014127999
0.00019932226
0.00025456348
0.00028499583
0.00027301828
0.00023515355
0.00033112065
6.2228963e-05
2.3466207e-05
6.0308309e-05
0.00015155593
0.0002566659
0.00030152124
0.00025976996
0.00020314176
0.00016611017
0.00013565166
0.00011034485
0.00010962407
0.00012188851
0.00011443143
8.2253154e-05
4.7441325e-05
4.3039204e-05
6.586056e-05
0.00010421961
0.0001626347
0.00024120178
0.00031440612
0.00032597687
0.0002232682
0.00011180292
2.3310508e-05
5.6077723e-05
0.00016278589
0.00033233179
0.00042598904
0.00037121806
0.00032284943
0.00027646213
0.00020688807
0.00013335794
9.2579442e-05
9.0423597e-05
8.6769643e-05
5.9659965e-05
3.6191064e-05
4.048851e-05
6.1835328e-05
9.2067895e-05
0.00013384935
0.00018180358
0.00020914096
0.00018051989
0.00011775778
3.6375877e-05
0.00014037079
0.00036117576
0.00053104705
0.00049362649
0.00050690214
0.0004456893
0.00030206396
0.00016097343
8.1393485e-05
6.3160714e-05
5.9021831e-05
4.0080139e-05
2.7956843e-05
3.465591e-05
4.889052e-05
6.3771259e-05
7.6680976e-05
8.2616593e-05
7.3918253e-05
5.8707994e-05
6.1997618e-05
6.0465967e-05
0.00030327102
0.00053665734
0.00058787311
0.00076152604
0.00065450667
0.00039823169
0.00017985505
7.2053006e-05
4.6039266e-05
3.982057e-05
2.8127106e-05
2.2173103e-05
2.6958988e-05
3.3906049e-05
3.6948894e-05
3.4842033e-05
3.0963525e-05
2.7334782e-05
3.5406678e-05
0.00013527335
0.00037422086
0.00056956727
0.00099836818
0.00083464694
0.00046573101
0.00019781606
7.7228276e-05
4.1399327e-05
3.1021788e-05
2.3048032e-05
1.7308917e-05
1.8837809e-05
2.2006968e-05
2.1585967e-05
1.7546833e-05
1.7970974e-05
3.3123547e-05
8.8002014e-05
0.00025158941
0.00095100302
0.00082624747
0.00049578118
0.00024593892
0.00012188092
5.7519986e-05
2.9503278e-05
1.9476335e-05
1.2479754e-05
1.0184016e-05
1.1565702e-05
1.3069607e-05
1.940121e-05
0.000390611
0.00050608758
0.00048032432
0.00030346056
0.00018551752
9.3233827e-05
3.8323554e-05
1.7846527e-05
1.0864322e-05
6.1484772e-06
9.1689785e-06
3.9184953e-05
0.00074587489
0.00034854249
0.00017162397
6.025477e-05
1.4672876e-05
7.8426124e-05
2.8752313e-05
1.5470541e-05
1.562511e-05
1.6006667e-05
2.5675458e-05
0.00015811961
0.00027262914
0.00092284858
3.0353066e-05
1.7879462e-05
1.6436739e-05
1.584413e-05
1.6373886e-05
2.1710758e-05
2.6908855e-05
2.6927814e-05
5.9150024e-05
0.00026111316
0.00076127262
0.0010602345
0.00061159832
0.00052291929
7.6617819e-05
3.5006728e-05
3.729414e-05
3.5257677e-05
3.1769706e-05
2.7879197e-05
2.3951758e-05
2.3258202e-05
2.8549382e-05
2.969582e-05
3.8598915e-05
0.00016791961
0.00064894638
0.0009742925
0.00061894797
0.00045466916
0.00022527719
9.09253e-05
0.00010351904
0.00011144072
0.00010040484
8.0340655e-05
6.0504999e-05
4.5051688e-05
3.3515557e-05
2.7285283e-05
3.0341474e-05
3.7219243e-05
4.76477e-05
0.00016755268
0.00049064374
0.00068754041
0.00058747427
0.00060110827
0.00036025619
0.00011119522
0.00016022201
0.00026161754
0.00030071768
0.00027408735
0.00021167193
0.00014688366
9.7078333e-05
6.4297254e-05
4.3106155e-05
3.2295069e-05
3.3954851e-05
4.5023185e-05
6.0184394e-05
0.00015626156
0.00032832016
0.00043545206
0.0004757305
0.00056896747
0.00040365045
0.00015954223
4.8972582e-05
0.00043876991
0.00054742797
0.0006209815
0.00056458945
0.00043593597
0.00030225867
0.0001957831
0.00012321452
7.6961763e-05
4.9139914e-05
3.6701478e-05
3.9667784e-05
5.3858863e-05
6.868285e-05
0.00012242769
0.00020014107
0.00026547431
0.0003518343
0.00044131748
0.00035564777
0.00017902988
5.8451683e-05
2.8589848e-05
0.0006946057
0.00090838424
0.00087099781
0.00069091443
0.00048952246
0.00032330278
0.00020378054
0.00012459722
7.6625284e-05
5.0274824e-05
4.0468301e-05
4.7113166e-05
6.3736843e-05
7.3320388e-05
9.0248748e-05
0.00011939665
0.00016346078
0.00024109611
0.00030296959
0.00026408283
0.00015818409
6.025225e-05
2.1812902e-05
3.7330824e-05
0.00057681667
0.001038353
0.0010189407
0.00082195946
0.00059713601
0.0004071901
0.00026298531
0.00016453806
0.00010345061
6.9134054e-05
5.1199021e-05
4.4988887e-05
5.4713686e-05
7.2813913e-05
7.7932055e-05
7.3443597e-05
7.7655787e-05
0.00010419027
0.00015525798
0.00019304045
0.00017572735
0.00011821966
5.441104e-05
2.3843765e-05
1.8258152e-05
0.001584993
0.0015979271
0.0012074166
0.00080081049
0.0005027322
0.00030751786
0.00018873805
0.00012099221
8.6568736e-05
7.0502069e-05
5.9850481e-05
5.2378733e-05
6.01864e-05
7.7713661e-05
8.1662436e-05
6.8761661e-05
5.9577201e-05
6.985842e-05
9.6730664e-05
0.00011777933
0.00011112075
8.2176471e-05
4.6526379e-05
2.4834469e-05
1.5019595e-05
2.925465e-05
0.0020091495
0.0013701479
0.0012558576
0.00093920093
0.0006284202
0.00038895222
0.00023197258
0.00014419281
0.00010652414
9.5759752e-05
9.0117431e-05
7.9249983e-05
6.410834e-05
6.2147038e-05
7.5956644e-05
8.0786385e-05
6.6629435e-05
5.1528111e-05
5.0114722e-05
6.0464581e-05
7.0881066e-05
7.0279939e-05
5.7011647e-05
3.8866955e-05
2.4702281e-05
1.4720462e-05
1.3401546e-05
0.0011830489
0.00078627548
0.0006118415
0.00047073383
0.00034777908
0.00024107713
0.0001651383
0.00013019372
0.00012450219
0.00012529181
0.0001187768
0.00010228087
7.9271945e-05
6.2190645e-05
6.6397314e-05
7.2297402e-05
6.0161918e-05
4.5897432e-05
4.0442881e-05
4.1923979e-05
4.5047068e-05
4.5138443e-05
3.9788466e-05
3.1031489e-05
2.2159878e-05
1.4169799e-05
1.0646348e-05
0.00081454292
0.00035576233
0.00018674913
0.0001418972
0.00013430996
0.00012769796
0.00012927389
0.00014259258
0.00015390409
0.00015250685
0.00013953561