/*--------------------------------*- C++ -*----------------------------------*\
| =========                 |                                                 |
| \\      /  F ield         | OpenFOAM: The Open Source CFD Toolbox           |
|  \\    /   O peration     | Version:  2406                                  |
|   \\  /    A nd           | Website:  www.openfoam.com                      |
|    \\/     M anipulation  |                                                 |
\*---------------------------------------------------------------------------*/
FoamFile
{
    version     2.0;
    format      ascii;
    arch        "LSB;label=32;scalar=64";
    class       volScalarField;
    location    "250";
    object      k;
}
// * * * * * * * * * * * * * * * * * * * * * * * * * * * * * * * * * * * * * //

dimensions      [0 2 -2 0 0 0 0];

internalField   nonuniform List<scalar> 
150387
(
0.00010639398
2.7247573e-05
2.0886803e-05
1.8111459e-05
2.310389e-05
4.8380866e-05
5.000925e-05
6.1021391e-05
6.0502832e-05
2.6064798e-05
2.4513412e-05
2.6528266e-05
2.8755365e-05
2.8997658e-05
3.379129e-05
3.6077992e-05
5.7579739e-05
7.8898152e-05
0.00010527999
0.00017484174
6.3677827e-05
2.5511014e-05
2.7726379e-05
3.60545e-05
4.270873e-05
4.4720129e-05
4.2934643e-05
3.7881766e-05
3.7827813e-05
4.1103829e-05
6.4037013e-05
9.7657266e-05
0.00016771782
0.00024848711
0.00012401867
5.5081403e-05
2.1385442e-05
7.7177263e-05
3.0988873e-05
4.2519717e-05
5.5384653e-05
6.0878651e-05
6.1220904e-05
5.814315e-05
5.1767379e-05
4.2374286e-05
3.7497205e-05
4.2463544e-05
7.2842217e-05
0.00011275701
0.00017235143
0.00021738725
0.00011895248
0.00012925593
8.9288544e-05
2.9591678e-05
7.7829723e-05
4.0972755e-05
7.3492904e-05
9.1661783e-05
9.447524e-05
8.9756855e-05
8.118337e-05
7.065133e-05
5.8976693e-05
4.5185146e-05
3.768655e-05
4.0925071e-05
7.2649012e-05
0.00010916232
0.00015019181
0.00016157997
0.00010666901
0.00015554779
0.0001268456
6.0644616e-05
2.0917285e-05
6.1698311e-05
0.0001220347
0.00015468382
0.00015159295
0.00013355466
0.00011218889
9.2618737e-05
7.8157668e-05
6.2950573e-05
4.7156704e-05
4.0305427e-05
4.2813605e-05
6.6982565e-05
9.5880515e-05
0.00012142722
0.00011747706
0.00010018599
0.00014605685
0.0001415226
8.6735169e-05
3.3982361e-05
2.3081171e-05
4.5336601e-05
0.00014192042
0.00019179846
0.00018942554
0.00016518789
0.00013783536
0.00011428697
9.4774166e-05
7.968985e-05
6.3657447e-05
4.7489019e-05
4.8296144e-05
5.7945705e-05
6.7326138e-05
8.2588556e-05
9.6131337e-05
9.1058569e-05
9.417637e-05
0.0001265219
0.00013114438
9.4407707e-05
5.1995899e-05
2.4395633e-05
2.8098213e-05
5.0204625e-05
0.00011018328
0.00015638893
0.00017271655
0.00016345879
0.00014389507
0.00012289159
0.00010486598
9.1070103e-05
7.8952158e-05
6.474093e-05
4.8749549e-05
5.9917793e-05
8.993302e-05
8.6696615e-05
7.8208899e-05
7.9948524e-05
7.7973722e-05
8.6223328e-05
0.00010684441
0.00011314725
9.1439958e-05
6.088797e-05
3.4819681e-05
1.8234903e-05
0.00020910861
0.00035480316
0.00031219087
0.00023144635
0.0001696543
0.00013211435
0.00011051364
9.8339426e-05
9.1009734e-05
8.4949797e-05
7.2253733e-05
5.2122927e-05
6.6007619e-05
0.00011218002
0.00011391196
8.7978119e-05
7.3160246e-05
6.9957151e-05
7.6676418e-05
8.9387009e-05
9.4370099e-05
8.3113369e-05
6.2299303e-05
4.2455057e-05
2.2082025e-05
2.5817969e-05
0.00021273095
0.00033152687
0.00032072486
0.00025799856
0.00019473604
0.00014846315
0.00012016846
0.00010832946
0.00011121981
0.00011225824
9.5626168e-05
6.3592626e-05
5.9305925e-05
0.00010562571
0.00011908954
9.4650982e-05
6.9637349e-05
6.2204415e-05
6.6163216e-05
7.4115462e-05
7.7104014e-05
7.1808022e-05
5.8993887e-05
4.4862686e-05
2.7505472e-05
1.659496e-05
6.7049267e-05
0.00013125056
0.00019969063
0.00021615117
0.00019424027
0.00016252098
0.00013426444
0.00011945258
0.00013469048
0.00016237565
0.00016684186
0.00013849873
9.0670147e-05
5.235963e-05
7.0926494e-05
9.4562956e-05
8.1042572e-05
5.9705679e-05
5.1189348e-05
5.3183332e-05
5.8463534e-05
6.1426552e-05
5.9441468e-05
5.1871916e-05
4.2885096e-05
2.9150645e-05
1.5494676e-05
8.6660997e-05
0.00010047135
0.00011460985
0.00013276202
0.00013198214
0.00012024315
0.00011347174
0.00014432749
0.00020588705
0.00024452184
0.00023408677
0.00018573726
0.00011911586
6.0356665e-05
3.5752122e-05
5.5495677e-05
5.2690918e-05
4.62275e-05
4.7665213e-05
5.0261487e-05
5.1236499e-05
4.9605153e-05
4.6352366e-05
4.2270937e-05
3.7669563e-05
2.7409003e-05
1.4745242e-05
1.6894391e-05
6.1365044e-05
7.0370234e-05
7.5738843e-05
8.646044e-05
8.9978376e-05
9.0216849e-05
0.00012371612
0.00020746477
0.00028400392
0.00030468769
0.00027101325
0.00020298485
0.00011803196
4.4632642e-05
1.6284027e-05
2.7990686e-05
4.0464688e-05
6.2365122e-05
8.0335199e-05
8.3099607e-05
7.1810818e-05
5.5246377e-05
4.3086673e-05
3.6492087e-05
3.2432691e-05
2.8920213e-05
2.1066031e-05
9.3442568e-06
3.664117e-05
4.6091004e-05
5.4027842e-05
5.8794526e-05
5.9432988e-05
7.3246237e-05
0.00013678002
0.0002258958
0.00028353471
0.00028659832
0.00024258501
0.00016634937
7.1869719e-05
1.4895103e-05
7.9129461e-06
2.0725815e-05
4.9169891e-05
8.8787876e-05
0.00011445966
0.00011477909
9.2732747e-05
6.2502614e-05
4.2999848e-05
3.8365464e-05
3.86227e-05
3.6382107e-05
2.9589968e-05
1.1311341e-05
2.0888463e-05
3.1321421e-05
3.5793247e-05
3.4958417e-05
3.6682441e-05
5.5351634e-05
0.00010442548
0.00016208739
0.00019901815
0.00019669831
0.00015542571
9.029241e-05
3.9501173e-05
2.1226739e-05
3.9300618e-05
3.2985733e-05
3.6807087e-05
7.4992899e-05
0.00010327429
0.00010380433
8.3801057e-05
6.5342944e-05
6.2079606e-05
6.6111165e-05
6.6509025e-05
5.794285e-05
3.9756519e-05
2.9366992e-05
1.0235736e-05
2.7655384e-05
3.5767852e-05
3.9691018e-05
4.1972424e-05
4.6469851e-05
5.7786982e-05
7.4832592e-05
8.73399e-05
8.2517152e-05
6.243728e-05
5.4316573e-05
9.2956027e-05
0.00012677985
0.00012489195
9.0639233e-05
4.856485e-05
4.6146155e-05
6.6644609e-05
7.172474e-05
6.8946363e-05
7.2229691e-05
8.1789822e-05
9.167705e-05
9.1545068e-05
7.7471881e-05
5.8463773e-05
4.9852343e-05
7.763213e-06
2.146441e-05
3.8095261e-05
4.9056425e-05
5.5608716e-05
5.9787633e-05
5.9793064e-05
5.7495937e-05
5.3589304e-05
5.1013511e-05
5.871987e-05
0.00010337681
0.00017566425
0.00022311397
0.00021600168
0.00016195486
8.6603328e-05
4.3140789e-05
4.6466452e-05
5.9253899e-05
6.8740632e-05
8.157452e-05
0.00010070046
0.00012051148
0.00012702332
0.00010864559
7.828148e-05
7.2271301e-05
2.09256e-05
2.169162e-05
4.1237505e-05
5.7193719e-05
7.1348055e-05
7.965243e-05
8.0575975e-05
7.5663326e-05
6.8148294e-05
6.7351432e-05
8.4631657e-05
0.00014104071
0.00023085987
0.00029085142
0.00028300122
0.00021765439
0.00012264591
5.2125914e-05
4.8104044e-05
6.168205e-05
7.2990936e-05
8.647822e-05
0.00011041611
0.00014555757
0.0001742126
0.0001652372
8.7003185e-05
2.1392384e-05
3.885662e-05
6.0944172e-05
8.451459e-05
9.9272319e-05
0.00010166909
9.4414563e-05
8.3596742e-05
8.1514246e-05
9.2649515e-05
0.00014303046
0.00024133038
0.00031945486
0.00031682865
0.00024494077
0.00013882842
6.0216049e-05
5.6503436e-05
7.0806391e-05
8.145012e-05
8.9186238e-05
0.00010250347
0.00013972702
0.00019800378
0.00022105086
8.2544373e-05
2.5217999e-05
3.1671796e-05
5.915274e-05
9.301629e-05
0.00012070736
0.00012512034
0.00011339055
9.7433816e-05
9.4248685e-05
9.8101562e-05
0.00012102016
0.00020125177
0.00029140041
0.00030237787
0.00023298316
0.00013013681
6.2905431e-05
6.5736507e-05
8.4429322e-05
0.00010071826
0.00011148088
0.00011233518
0.00010186464
9.1879249e-05
8.7821672e-05
2.155368e-05
2.4368422e-05
5.0089465e-05
9.2997693e-05
0.00014156748
0.00015048472
0.00013476987
0.00011123809
0.00011389545
0.0001144108
0.00010829663
0.0001381976
0.00020966159
0.00023551118
0.00018571957
0.00010338528
6.0902244e-05
7.320183e-05
9.6378125e-05
0.00012147144
0.00014561539
0.000163049
0.00016250946
0.00011921945
3.2338589e-05
3.6943293e-05
3.4306884e-05
8.1760907e-05
0.00015412431
0.00017604747
0.000154907
0.00013258689
0.00015040674
0.00014347146
0.00011984345
0.00010315276
0.00012170176
0.00014395827
0.00012179171
7.160951e-05
5.6433824e-05
7.4501594e-05
9.8853989e-05
0.00012464631
0.00014405026
0.0001470609
0.00011657149
7.1676578e-05
2.9853102e-05
3.1346312e-05
5.5661694e-05
0.00014331949
0.00019316462
0.00016932725
0.0001724502
0.00020700338
0.00018051999
0.00013857397
0.00010428471
8.2438624e-05
7.493345e-05
6.2583948e-05
4.7671156e-05
5.059094e-05
6.8273475e-05
8.6694324e-05
9.9656567e-05
9.9295427e-05
8.2212809e-05
4.4939373e-05
2.7230827e-05
3.0179217e-05
9.5284857e-05
0.00017905711
0.00016354863
0.00023940924
0.00027587197
0.00021438797
0.00015053402
0.00010707399
7.8675424e-05
5.5000475e-05
3.3102388e-05
3.4536049e-05
4.4632021e-05
5.5936611e-05
6.4176719e-05
6.3820632e-05
5.1102546e-05
2.8912048e-05
2.3429617e-05
4.1171812e-05
0.00010626872
0.00012481747
0.00031416446
0.00032782651
0.00022670287
0.00014266067
9.7926242e-05
7.3060069e-05
5.2360744e-05
3.0404132e-05
2.6277041e-05
3.6948997e-05
4.2105829e-05
4.0807475e-05
3.2205945e-05
2.1286144e-05
2.4523669e-05
1.8926238e-05
7.1227898e-05
0.00031528234
0.00030616214
0.00018616123
0.00011404483
8.1424842e-05
6.1257665e-05
4.5884545e-05
3.2222261e-05
2.04403e-05
2.0736054e-05
2.1487556e-05
1.7200942e-05
1.5528951e-05
3.3688486e-05
5.6245275e-05
9.9832421e-05
0.00010692971
0.00010756698
8.2831115e-05
5.1533797e-05
3.4397143e-05
2.7633092e-05
1.5085009e-05
8.6990062e-06
1.113944e-05
2.2959631e-05
8.0799641e-05
5.4471313e-05
4.1076897e-05
3.0674952e-05
1.6703585e-05
1.0434901e-05
4.4983471e-05
3.5732848e-05
2.8141708e-05
2.8293867e-05
3.2203904e-05
1.9798217e-05
2.4275848e-05
6.871027e-05
0.00015078802
3.7865254e-05
3.3438042e-05
3.808129e-05
4.3362735e-05
4.9286812e-05
6.4254389e-05
7.2911197e-05
5.489063e-05
6.3798737e-05
0.00013561495
0.00025010948
0.00031966695
0.00010869936
5.0366673e-05
3.9480476e-05
4.0802858e-05
4.9192783e-05
5.7072153e-05
6.4745922e-05
7.0938929e-05
7.4665398e-05
8.0238695e-05
8.4314813e-05
7.4485588e-05
8.811509e-05
0.00016894236
0.00032596322
0.00039511186
0.00020765294
0.00014100919
6.5965848e-05
4.1980808e-05
7.0881112e-05
9.0004659e-05
9.9737131e-05
0.00010205446
0.00010127114
9.9062289e-05
9.5350119e-05
9.1725931e-05
8.6189077e-05
8.414478e-05
0.00010996874
0.00019186215
0.00031594137
0.00034521052
0.00024077234
0.0002521304
0.00015467291
4.9771161e-05
5.3227165e-05
0.00013396012
0.00018049769
0.00019525299
0.00018605375
0.00016583424
0.00014470661
0.00012757109
0.0001132774
0.00010072127
8.9087901e-05
9.0151436e-05
0.00012276714
0.00018801278
0.000260669
0.0002666576
0.00024137173
0.0002935732
0.00021688671
9.3787875e-05
3.0626468e-05
6.4883252e-05
0.00021068584
0.00030046706
0.00032741007
0.00030316636
0.00025704278
0.00021099581
0.00017389262
0.00014604152
0.00012402006
0.00010608354
9.8836308e-05
0.00010496498
0.00012770952
0.00016758317
0.00020158412
0.00020469657
0.00022350763
0.00027827999
0.00023291518
0.00012355615
4.9182176e-05
2.6408969e-05
0.00020218115
0.00035782456
0.00041728779
0.00039550959
0.0003362656
0.00027399791
0.00022099654
0.00018047224
0.00015121508
0.00012711626
0.000108411
0.00011732301
0.00014002048
0.00014168082
0.00014886399
0.00015928026
0.00016565265
0.00019726813
0.0002370803
0.00021246227
0.0001344547
6.2111071e-05
3.155932e-05
2.899861e-05
0.00010632824
0.00034552227
0.00041065712
0.00039635432
0.00034888962
0.00029211943
0.00023991748
0.00019941087
0.00017141904
0.00015111561
0.00012865594
0.00011007569
0.00013805171
0.00018198421
0.00017432972
0.00014743767
0.00013724009
0.00014209265
0.00016906836
0.00019502192
0.00018191124
0.00013175818
7.2889451e-05
4.0222133e-05
2.4494814e-05
0.0004762879
0.00063001255
0.00057912707
0.00045931276
0.00034764
0.00026657552
0.00021526195
0.00018796629
0.00017701553
0.00016797025
0.0001443684
0.0001166788
0.00014824924
0.00020586504
0.00020469691
0.00016072761
0.00013073018
0.00012763476
0.00014471121
0.00016114277
0.00015419493
0.00012374037
8.2122939e-05
5.1907139e-05
3.1279901e-05
3.2100205e-05
0.00016160152
0.00040411971
0.00054181593
0.00052542862
0.00043614654
0.00033379049
0.00025621514
0.00021473047
0.00020789149
0.00021862829
0.00021758174
0.0001865083
0.00013726381
0.00014029177
0.00019481963
0.0002064045
0.0001648257
0.00012648276
0.00011652711
0.00012525962
0.00013556298
0.00013292008
0.00011484494
8.7565662e-05
6.203929e-05
3.6892424e-05
2.4887476e-05
0.00019866763
0.00025358067
0.00031523565
0.00033764061
0.00031302376
0.00026655178
0.00023032797
0.00023235611
0.00026902149
0.00029904241
0.00029204128
0.00024534467
0.00017438748
0.00012544394
0.0001492172
0.0001717187
0.00014238396
0.0001102916
0.00010263047
0.00010923466
0.00011631841
0.00011576667
0.00010542593
8.7806447e-05
6.7246471e-05
4.0691791e-05
2.2746125e-05
0.00011718119
0.00013562311
0.00015314824
0.00017816748
0.00019160837
0.00019498407
0.00022337266
0.00029341264
0.00035951805
0.00038073695
0.00035323112
0.00028809316
0.0002026008
0.00011878499
9.2436783e-05
0.00011505676
0.00010721103
0.00010512088
0.00011157881
0.00011461889
0.00011241083
0.00010622315
9.7651529e-05
8.6912988e-05
7.3565235e-05
5.3026144e-05
2.9835679e-05
2.1887782e-05
0.00010053374
8.769911e-05
9.085196e-05
0.0001083561
0.0001288242
0.0001699122
0.00025848105
0.00035643555
0.00041167585
0.00041232371
0.00036736194
0.00028481185
0.00020540686
0.00010628084
4.4367562e-05
7.5165932e-05
0.00011440824
0.00015275552
0.0001701742
0.00016372461
0.00014166266
0.00011596995
9.54022e-05
8.1621625e-05
7.0784927e-05
5.6627354e-05
4.182744e-05
1.5963101e-05
6.3153397e-05
5.90315e-05
6.8289203e-05
8.0076027e-05
0.00010115373
0.00015926686
0.00025044166
0.00033411116
0.00037613838
0.00036843221
0.00031553905
0.00022448082
0.00015288643
4.7551867e-05
1.3520863e-05
6.9320676e-05
0.00012906299
0.00018564023
0.00020791776
0.0001967385
0.00016349297
0.00012518402
9.7735321e-05
8.2830765e-05
6.9088296e-05
5.0878497e-05
2.7514465e-05
1.3564177e-05
2.9066494e-05
4.8222482e-05
6.8957013e-05
8.0290331e-05
9.3631399e-05
0.00012346074
0.0001730098
0.00022556322
0.00025565161
0.00024780711
0.0002028411
0.00014662207
0.00010708417
8.2540396e-05
0.00010673393
0.00010699548
0.00010766605
0.00015379747
0.00017949707
0.00017152345
0.00014592474
0.0001239849
0.00011313288
0.00010229321
8.5315279e-05
6.8676803e-05
4.8783801e-05
2.9830638e-05
1.9864368e-05
6.0584771e-05
8.5374139e-05
0.0001002645
0.00010992494
0.0001177579
0.00012617517
0.00013426864
0.00013662033
0.0001271491
0.00012125418
0.00015887231
0.00022418713
0.00025831826
0.00024219598
0.00018067883
0.0001106324
0.00010159017
0.0001256647
0.00013076632
0.00012901145
0.00013534927
0.00014487522
0.00014251609
0.00012230554
9.8350453e-05
7.4276991e-05
3.6406777e-05
2.0187823e-05
4.5011259e-05
7.8032227e-05
0.00010404205
0.00012542543
0.00013858895
0.00014064256
0.00013199357
0.00011890606
0.00011515059
0.00014905907
0.00023178862
0.00031665988
0.00035328172
0.00033090489
0.00025534111
0.00014838335
8.7792371e-05
0.00010087924
0.00011644328
0.00012978129
0.00015448758
0.00018965908
0.00021723248
0.00021020504
0.00016635026
0.00011030673
2.8893259e-05
4.0244256e-05
7.1348843e-05
0.00010468146
0.00013971619
0.00016393299
0.00016990634
0.00015931353
0.00014556143
0.00014559223
0.00018175498
0.00026933925
0.00036534493
0.00040953575
0.0003859123
0.00030204821
0.00018111005
0.000104699
0.00010888479
0.00012354366
0.00013812543
0.00016706357
0.00021986112
0.0002850649
0.00031817788
0.00025419905
0.00010915728
3.5147125e-05
6.056594e-05
0.00010028261
0.00015373113
0.000193778
0.00020605649
0.00019042504
0.00016893645
0.00016333324
0.00018657897
0.00026158876
0.00036644648
0.00042452489
0.00040389315
0.00031366338
0.00018915932
0.00012039131
0.00012789704
0.0001437609
0.00015844447
0.00018027316
0.00021818298
0.00027776875
0.00032987026
0.00028109884
0.00010695064
3.0350173e-05
4.8549751e-05
9.1546353e-05
0.00016738194
0.00023260509
0.00025343548
0.00023080564
0.00019976516
0.00018781272
0.0001911748
0.00022792955
0.00031802696
0.00038979481
0.0003781793
0.00028804181
0.00017399535
0.00012964977
0.00014680734
0.00017025081
0.00019351079
0.00021474232
0.00022425743
0.00020839907
0.00016625288
0.00013521714
6.0317904e-05
3.9089568e-05
3.8529057e-05
7.9369532e-05
0.00017301248
0.00027418968
0.00031175301
0.00028048622
0.00024666267
0.00023410419
0.0002181048
0.00020481822
0.00024078292
0.00030512127
0.00030823888
0.00023199376
0.00014639706
0.00013228594
0.00015704911
0.00018444922
0.00021520258
0.00024825826
0.00026527699
0.00023119252
0.0001273898
3.4156199e-05
3.3353442e-05
6.2435744e-05
0.00015899543
0.00029956897
0.00036931879
0.00033011974
0.00031823502
0.00031134471
0.00026876521
0.00021004896
0.00018056577
0.00020184676
0.00021200012
0.0001621185
0.00011833303
0.00012633116
0.00015068859
0.00017149745
0.00018878884
0.0002010592
0.00019125771
0.00013905594
8.6653704e-05
3.2170452e-05
0.00011882053
0.0002771665
0.00039160056
0.00036919518
0.00041727066
0.00041443342
0.00032694085
0.00022083641
0.00015353072
0.0001306654
0.0001249919
0.00010101424
9.6272979e-05
0.00011252
0.00012857601
0.0001345243
0.00012681015
0.00010720512
7.9377038e-05
6.151599e-05
3.4553184e-05
4.495549e-05
0.00019500129
0.00033553854
0.0003759128
0.00052861385
0.00050946873
0.00036198698
0.00021265641
0.00013158133
0.00010042079
8.0367005e-05
6.4408406e-05
7.9116738e-05
9.2816745e-05
9.7914672e-05
9.0018442e-05
6.9654771e-05
4.8015526e-05
3.6263463e-05
2.9754782e-05
6.2669149e-05
0.00018602846
0.00030704636
0.00057889419
0.0005321912
0.00034056095
0.00018482546
0.00010966567
8.2784953e-05
6.5558566e-05
5.077902e-05
6.0970087e-05
6.7788535e-05
6.6203686e-05
5.4330442e-05
3.7117568e-05
2.8130396e-05
2.9200427e-05
3.0850654e-05
0.00011456496
0.00044063109
0.00039257589
0.00026374733
0.00016022352
0.00010264723
7.3525058e-05
5.6380534e-05
4.5213479e-05
3.9112866e-05
3.4788389e-05
3.2421965e-05
3.1059284e-05
2.4942706e-05
9.4288953e-05
0.00011522568
0.00017293537
0.00015291102
9.9133011e-05
7.0422289e-05
4.9354256e-05
3.561175e-05
2.7385077e-05
1.7723759e-05
1.9734244e-05
2.6349892e-05
0.00011862143
0.00011055988
7.2969565e-05
3.7734073e-05
2.2655856e-05
4.3406083e-05
3.7399572e-05
3.1321133e-05
3.8714807e-05
4.3527612e-05
2.4015821e-05
5.4193935e-05
0.00010698512
0.00023778557
3.9109485e-05
3.7527814e-05
4.2454691e-05
4.8249365e-05
5.7433534e-05
8.0893889e-05
9.2445421e-05
6.5739377e-05
5.867941e-05
0.00017019534
0.00037782673
0.00048891593
0.00018550575
0.00010377957
4.2251736e-05
4.8495081e-05
5.9009094e-05
6.6093886e-05
7.3330813e-05
8.0301904e-05
8.6267586e-05
9.7587011e-05
0.00010677714
8.9307489e-05
7.8120854e-05
0.00019687472
0.00046875331
0.00059053155
0.000347311
0.00022398574
0.00010545361
5.1027344e-05
9.7133247e-05
0.00012297194
0.00013063847
0.000126567
0.00011977519
0.00011474968
0.00011214314
0.00011357327
0.00011337064
0.00010415146
0.0001086726
0.00023072125
0.00044478556
0.00051648989
0.00039628539
0.00037583396
0.00022884157
6.9741343e-05
7.0883539e-05
0.00019091511
0.00025461407
0.00026797888
0.00024529083
0.00020765432
0.00017326992
0.0001491866
0.00013473818
0.00012730044
0.00012128081
0.00011895414
0.00013677522
0.0002321803
0.00036078987
0.00039970036
0.0003818426
0.00042210411
0.00030547626
0.00013188034
3.8299786e-05
0.00010397811
0.00031317402
0.00042434541
0.00044810931
0.00040554355
0.00033525261
0.00026550379
0.00021050578
0.00017311081
0.00015038659
0.00013771397
0.00013577794
0.000145591
0.00015806756
0.00020840089
0.00027062975
0.00029868818
0.00033533285
0.00038900098
0.00031602012
0.00017291865
6.563785e-05
2.8296187e-05
0.00031454154
0.00052656775
0.0005938753
0.00055220985
0.00046174523
0.00036465963
0.00028186941
0.00022077202
0.0001821716
0.00015845739
0.00014533012
0.00015806817
0.00018786747
0.00018691068
0.0001873243
0.00020545913
0.00022822342
0.0002783272
0.00032195656
0.00028000871
0.00018059698
8.0777852e-05
3.6818647e-05
3.2157944e-05
0.0001914028
0.00054613106
0.00063837107
0.00060369314
0.00051552743
0.00041537908
0.00032481997
0.00025516584
0.00021056257
0.00018547352
0.00016516439
0.00015190305
0.00018145156
0.00023043229
0.00022619597
0.00018999778
0.00017378578
0.00018521511
0.00022415721
0.00025363111
0.00023004749
0.00016615193
8.9667796e-05
4.6997791e-05
2.8708648e-05
0.00069122992
0.00089778625
0.00082592502
0.00065796659
0.00049545119
0.00036729761
0.00028063255
0.00023278398
0.00021473112
0.00020631317
0.00018535931
0.00016248824
0.00019425331
0.00025286316
0.00025555719
0.00020730134
0.00016807364
0.0001623808
0.0001829694
0.00020037447
0.00018801817
0.00014929226
9.8028623e-05
6.0963537e-05
3.7813079e-05
3.3528782e-05
0.00026557833
0.00061885891
0.00078239857
0.00073222182
0.000595139
0.00044627584
0.00032993481
0.00026485976
0.00025002167
0.00026092532
0.00026186251
0.0002319066
0.00018530436
0.00018959893
0.00024237466
0.00025524442
0.00021154185
0.00016664722
0.00015084887
0.00015724892
0.00016595518
0.00016027147
0.00013792769
0.00010549314
7.4811194e-05
4.5464281e-05
2.8534475e-05
0.00031666269
0.00039201783
0.00044808868
0.00045084591
0.00040490881
0.00033650049
0.00028478987
0.00028325052
0.00032036154
0.00034972962
0.00034219361
0.00029474882
0.0002229765
0.00017491776
0.00019777603
0.00021915128
0.00018748812
0.00015222686
0.0001408649
0.00014389653
0.00014771028
0.00014394968
0.00013003818
0.00010825851
8.2500191e-05
5.1554256e-05
2.8420931e-05
0.00019770856
0.00019911351
0.00018746956
0.00020394257
0.0002216071
0.00023392783
0.00027674262
0.00035449546
0.00041771231
0.00043440075
0.00040511547
0.00033909353
0.00025173229
0.00016299072
0.00013548445
0.00015835817
0.00015164575
0.00014966445
0.00015419412
0.00015471795
0.00014934107
0.0001394966
0.00012652122
0.0001107485
9.2164624e-05
6.8764754e-05
4.6689813e-05
2.6239918e-05
0.00018170775
0.00011960485
9.7342629e-05
0.00011353129
0.00014730557
0.00021376494
0.00031843681
0.00041516077
0.000463458
0.00046071705
0.0004160148
0.00033314185
0.00025405806
0.00014693692
7.7888301e-05
0.00011213724
0.0001578682
0.00019769088
0.00021409716
0.00020636273
0.00018281889
0.00015426076
0.00012911522
0.00010959321
9.3303073e-05
7.3830302e-05
5.5432315e-05
1.9833918e-05
9.0735946e-05
6.3980632e-05
7.5588563e-05
9.8080575e-05
0.00013438861
0.00020548473
0.00029977853
0.00037988956
0.00041933587
0.00041261795
0.00036208319
0.00027289175
0.00020437593
7.1654812e-05
2.8187238e-05
0.00010625794
0.00017389865
0.00023114613
0.00025233743
0.00024130539
0.00020856351
0.00016730028
0.00013090508
0.00010419124
8.0745057e-05
5.403747e-05
2.4644925e-05
1.5468356e-05
4.1124208e-05
5.7748535e-05
8.8494291e-05
0.00010886436
0.00012829485
0.00016139102
0.0002115121
0.00026312689
0.00029372682
0.00028927679
0.00025033152
0.00020117665
0.00016903752
0.00013235442
0.00014944216
0.00015071266
0.00015443105
0.00019985961
0.00022395958
0.00021597591
0.00018809203
0.00015680313
0.00013137997
0.00010636279
7.9764322e-05
5.9455993e-05
4.015689e-05
3.5857459e-05
2.1711045e-05
7.2915422e-05
0.0001033652
0.00012466686
0.00013958356
0.00015121657
0.00016197835
0.0001715831
0.00017571643
0.00017011475
0.00017121145
0.00021155944
0.00027384749
0.0003054436
0.00028840434
0.00022363556
0.00015382522
0.0001465611
0.00016821181
0.00017065946
0.00016376547
0.00016523325
0.00017073579
0.00016098638
0.00013098932
0.00010133009
6.8734847e-05
7.8180766e-05
2.2229375e-05
5.6719177e-05
9.3858269e-05
0.0001256525
0.00015157055
0.00016820298
0.0001730948
0.00016724571
0.00015680902
0.00015614284
0.00019348622
0.00027918027
0.00036482451
0.00040037271
0.00037690318
0.00029653315
0.000185225
0.0001262464
0.00013754848
0.00014963161
0.0001631621
0.00019747255
0.00024871044
0.0002882807
0.00028195868
0.00023382962
0.0001568264
3.0953586e-05
4.8891634e-05
8.5535948e-05
0.00012556
0.00016672818
0.00019571827
0.00020511739
0.00019593599
0.00018213439
0.00018346542
0.00022334381
0.00031543375
0.00041276056
0.00045462096
0.00042927738
0.00034001007
0.00021398409
0.00013931686
0.00014186127
0.00015589299
0.00017797232
0.00022800639
0.00031377162
0.00041419867
0.00046904713
0.00038985081
0.00018989154
4.2536352e-05
7.2616593e-05
0.00012214289
0.0001875921
0.00023710817
0.00025595183
0.00024003521
0.00021254712
0.00020200887
0.00022678219
0.00030816353
0.00041552979
0.00046926354
0.00044434795
0.00034796108
0.00021993902
0.00015426102
0.00016112448
0.00018088754
0.00021023177
0.00025900201
0.0003324309
0.00042844324
0.00050580078
0.00043822531
0.00018917829
3.4071713e-05
5.8769797e-05
0.00011675007
0.00021494977
0.00029600741
0.00033035511
0.00030687987
0.00026316185
0.00023657944
0.00023332262
0.00027434833
0.00037072181
0.0004384806
0.00041889515
0.00032093873
0.00020511409
0.0001637648
0.00018138574
0.00021229914
0.000255804
0.00030549789
0.00034080059
0.00033764802
0.00028183209
0.00021668583
0.00012150945
4.0156228e-05
4.6356348e-05
0.00010672153
0.00023572529
0.00036158176
0.00042339522
0.00039388079
0.00034402624
0.00030754802
0.00027169552
0.00024888444
0.00029112482
0.00035749971
0.00035219484
0.00026668167
0.00017985569
0.0001666714
0.00019131813
0.00022521161
0.0002751115
0.00033630434
0.00037349422
0.00033631918
0.0001979611
7.4430703e-05
3.5508356e-05
8.5173898e-05
0.00022444244
0.00040584695
0.00051252952
0.00048688159
0.00046064558
0.00042317771
0.0003454524
0.00025388913
0.00021600768
0.00024673053
0.00025625156
0.00019856802
0.00015252925
0.00016012365
0.00018324822
0.00020481143
0.0002322649
0.00026209994
0.00026175011
0.00019836156
0.00012718047
3.7537767e-05
0.00016829783
0.00038912195
0.00055481782
0.00056511429
0.00060796775
0.00057276503
0.00043212581
0.00026773701
0.00016927532
0.00015565925
0.00016115213
0.00013486164
0.00012730281
0.00014362637
0.00015792787
0.0001594948
0.00015300906
0.00013946609
0.0001071358
8.1103257e-05
4.7572804e-05
5.8118053e-05
0.00028748859
0.00049164355
0.00058895073
0.00076382928
0.00071422711
0.00049401763
0.000264919
0.00013871876
0.00010944989
0.00010294543
9.1963866e-05
0.00010355221
0.00011859553
0.00012232099
0.00010746003
8.1772603e-05
5.9189536e-05
4.5723939e-05
3.3400546e-05
9.1998598e-05
0.00029063307
0.00049431352
0.00083495089
0.00076944099
0.00049262476
0.00024964724
0.00012216819
8.9347823e-05
8.1092406e-05
7.1382739e-05
7.7308937e-05
8.6354519e-05
8.5429735e-05
6.9081342e-05
4.5160437e-05
3.3734013e-05
3.0787674e-05
6.3515926e-05
0.00020129585
0.00064825923
0.00060207295
0.00041427932
0.00024240786
0.00013844217
8.8281756e-05
6.9284093e-05
5.8502474e-05
4.763463e-05
4.6085251e-05
4.3738755e-05
4.3893196e-05
3.015567e-05
0.00020890923
0.00018260018
0.00028569889
0.00023727278
0.00015890172
0.00010708189
6.3049615e-05
4.6915705e-05
3.3521069e-05
2.2269714e-05
2.0692727e-05
2.8583744e-05
0.0002022779
0.00019461589
0.00012612985
6.2001003e-05
2.098283e-05
4.4586861e-05
3.8951311e-05
3.4917211e-05
4.9292939e-05
4.9397028e-05
4.0933146e-05
0.00012203304
0.00020420865
0.00034861018
4.1318498e-05
4.16767e-05
4.7327324e-05
5.4085127e-05
6.8655948e-05
9.9377119e-05
0.00011075255
8.4270891e-05
8.7248779e-05
0.00023520218
0.00056126956
0.00071492371
0.00029069917
0.00017087064
4.6707237e-05
6.0530515e-05
7.4064831e-05
7.973383e-05
8.4947243e-05
9.1731671e-05
9.9970807e-05
0.00011537434
0.00012518659
0.00010381228
8.3605089e-05
0.00021257382
0.00064321449
0.00084458136
0.00053958482
0.00033567772
0.00016429958
6.2624448e-05
0.00013208268
0.00016608622
0.00017201649
0.00015947569
0.0001434834
0.00013346528
0.0001301544
0.00013326157
0.00013424319
0.00012035492
0.00010672183
0.0002522974
0.00059055975
0.00073207874
0.00060515799
0.0005392348
0.0003245527
9.801832e-05
9.1681568e-05
0.0002670257
0.00035018475
0.00036063118
0.00032000187
0.00026110669
0.00020932188
0.00017498377
0.00015687871
0.00015047275
0.0001475891
0.0001436875
0.00014213733
0.00026648042
0.00047126063
0.00056299171
0.00056366341
0.0005899318
0.00042131897
0.00018643979
4.9477592e-05
0.00015210727
0.00044007308
0.00057875613
0.00060037951
0.00053496347
0.00043430365
0.00033492404
0.00025659005
0.00020408221
0.00017576867
0.000165194
0.00016893628
0.00018233114
0.00018265593
0.00024305526
0.00034593799
0.00041278084
0.00047836059
0.00053237601
0.0004270755
0.00024116291
8.812832e-05
3.2497567e-05
0.0004592264
0.00073797987
0.00081532452
0.00074547973
0.00061377491
0.0004759484
0.00035732041
0.00026820601
0.00021357993
0.0001861582
0.00017770268
0.0001970445
0.00023137506
0.00022828246
0.00022176531
0.00025374855
0.00030343036
0.00038070754
0.00043102829
0.00037119732
0.00024313699
0.00010698441
4.4190464e-05
3.4856908e-05
0.00030086572
0.00080070888
0.00092187367
0.00085517993
0.0007137179
0.00056207291
0.00042471735
0.00031816511
0.00025009292
0.000215853
0.0001960499
0.00018929118
0.00022350295
0.00027356
0.00027246539
0.00022989131
0.00020965109
0.00023330396
0.00029166738
0.00032977709
0.00029606862
0.0002131412
0.00011316654
5.5589026e-05
3.2295637e-05
0.00096303445
0.0012310927
0.0011222017
0.00088908046
0.00066264261
0.00047990361
0.00035117009
0.00027667366
0.00024824728
0.00023879715
0.00021980386
0.00020333712
0.00023743507
0.00029310665
0.0002984008
0.00024988114
0.000203467
0.00019693445
0.00022605037
0.00024994473
0.00023291133
0.00018279184
0.00011818652
7.1024384e-05
4.3862487e-05
3.6114677e-05
0.0003942495
0.0009164199
0.0010849808
0.00097086926
0.00076647624
0.00056177431
0.00040224523
0.00031094184
0.00028775117
0.00029823076
0.00029884703
0.00026860143
0.0002263552
0.00023310273
0.00028124461
0.00029397729
0.00025199456
0.00020329692
0.00018245769
0.00018878418
0.0001999021
0.00019338808
0.00016582259
0.00012662271
8.9432619e-05
5.5152014e-05
3.193255e-05
0.00047386168
0.00060317578
0.00061825795
0.00057208011
0.0004895775
0.00039438196
0.00032922885
0.00032908518
0.00036797084
0.00039382981
0.00038219859
0.00033242328
0.00026148487
0.00021667961
0.00023685735
0.00025573322
0.00022545304
0.0001896893
0.00017510739
0.00017522765
0.00017788813
0.00017333049
0.00015719251
0.00013160393
0.00010114708
6.5614796e-05
3.5529659e-05
0.00033531094
0.00031299968
0.00023382247
0.00022265829
0.00023980439
0.0002629108
0.00032762809
0.00041388608
0.00047048082
0.00047887002
0.00044501365
0.0003768302
0.00028769494