/*--------------------------------*- C++ -*----------------------------------*\
| =========                 |                                                 |
| \\      /  F ield         | OpenFOAM: The Open Source CFD Toolbox           |
|  \\    /   O peration     | Version:  2406                                  |
|   \\  /    A nd           | Website:  www.openfoam.com                      |
|    \\/     M anipulation  |                                                 |
\*---------------------------------------------------------------------------*/
FoamFile
{
    version     2.0;
    format      ascii;
    arch        "LSB;label=32;scalar=64";
    class       volScalarField;
    location    "250";
    object      nut;
}
// * * * * * * * * * * * * * * * * * * * * * * * * * * * * * * * * * * * * * //

dimensions      [0 2 -1 0 0 0 0];

internalField   nonuniform List<scalar> 
150387
(
3.6535288e-06
3.1006989e-06
2.6746565e-06
2.2676801e-06
1.7954623e-06
4.6197671e-06
3.3759964e-06
2.6046452e-06
1.3589061e-06
2.3339418e-06
2.7095279e-06
3.4855088e-06
4.2675311e-06
4.5437135e-06
5.0064421e-06
2.8553699e-06
5.9488159e-06
8.213936e-06
9.3862151e-06
1.8352381e-05
5.4646523e-06
2.145201e-06
2.9055787e-06
5.0347667e-06
6.8267984e-06
7.4506799e-06
6.877135e-06
5.6595614e-06
5.251133e-06
3.2130972e-06
6.0754989e-06
1.1063823e-05
1.8347752e-05
2.4844155e-05
1.4433849e-05
6.5912465e-06
2.1105727e-06
1.4397452e-06
2.7129864e-06
5.5234924e-06
8.5209187e-06
9.8376518e-06
1.0089539e-05
9.5507913e-06
8.1066107e-06
5.9612057e-06
4.7791292e-06
3.3946998e-06
6.8348922e-06
1.3056798e-05
2.0112818e-05
2.4418631e-05
1.5185825e-05
1.6612527e-05
1.276439e-05
2.2463527e-06
1.1955414e-06
4.2705207e-06
1.0700902e-05
1.4210714e-05
1.4941649e-05
1.4355769e-05
1.3091563e-05
1.1490906e-05
9.1235958e-06
6.1284536e-06
4.5595523e-06
3.4515878e-06
6.8369488e-06
1.2233569e-05
1.8237059e-05
2.0018507e-05
1.4396001e-05
2.1235306e-05
1.7969803e-05
9.2086446e-06
1.8851686e-06
6.8577533e-06
1.654523e-05
2.1310565e-05
2.1489817e-05
1.9425065e-05
1.6787538e-05
1.4157083e-05
1.2163343e-05
9.2937822e-06
6.1962104e-06
4.802697e-06
4.0998953e-06
6.5499135e-06
1.0464348e-05
1.459086e-05
1.5118887e-05
1.3794171e-05
2.1092449e-05
2.0624446e-05
1.4096942e-05
4.7223832e-06
1.5088576e-06
4.5487433e-06
1.6269699e-05
2.3029914e-05
2.3891093e-05
2.1967377e-05
1.910503e-05
1.638849e-05
1.3676134e-05
1.1464043e-05
8.6724339e-06
5.9083038e-06
5.8673883e-06
6.3302004e-06
7.1783806e-06
9.0619132e-06
1.1237705e-05
1.1276973e-05
1.3003298e-05
1.9016178e-05
2.0032119e-05
1.5560801e-05
8.8731863e-06
2.8225889e-06
1.3755179e-06
1.2299986e-06
1.1502427e-05
1.7474173e-05
2.0805017e-05
2.0775588e-05
1.8673047e-05
1.5895685e-05
1.3526306e-05
1.1791042e-05
1.011212e-05
8.0308927e-06
5.7981071e-06
7.4605631e-06
1.0626292e-05
1.011816e-05
8.8596772e-06
9.2957184e-06
9.5157873e-06
1.1923886e-05
1.6572941e-05
1.8103793e-05
1.5473158e-05
1.0910872e-05
5.7292017e-06
1.9181505e-06
1.738471e-05
3.0614945e-05
3.0523793e-05
2.5776881e-05
1.9920682e-05
1.530075e-05
1.2537297e-05
1.120293e-05
1.0392757e-05
9.6751361e-06
8.2700286e-06
6.0235376e-06
8.1364102e-06
1.3329265e-05
1.3743468e-05
1.0387027e-05
8.6249342e-06
8.6181155e-06
1.0682454e-05
1.4286771e-05
1.5782779e-05
1.4618919e-05
1.1479846e-05
7.9644525e-06
3.1413174e-06
2.2244571e-06
1.6994631e-05
2.8597509e-05
3.0610336e-05
2.6817036e-05
2.1280118e-05
1.6298977e-05
1.2995583e-05
1.1514238e-05
1.1752588e-05
1.1943641e-05
1.0407875e-05
7.2319557e-06
7.2080868e-06
1.2634317e-05
1.4442316e-05
1.1457095e-05
8.2772682e-06
7.6736211e-06
9.1984335e-06
1.1983623e-05
1.3365771e-05
1.3104518e-05
1.1157342e-05
8.850821e-06
4.8316021e-06
1.9369903e-06
3.798702e-06
1.1107576e-05
1.9513223e-05
2.2152783e-05
2.0287602e-05
1.6827317e-05
1.3689218e-05
1.2002153e-05
1.3609396e-05
1.6620589e-05
1.7672601e-05
1.5188702e-05
1.0366846e-05
6.499389e-06
8.6969388e-06
1.149719e-05
9.7663586e-06
7.1415416e-06
6.1766288e-06
7.0919776e-06
9.0101314e-06
1.0572248e-05
1.0994957e-05
9.8923735e-06
8.5694326e-06
5.4539279e-06
1.9987455e-06
6.5853452e-06
1.0010378e-05
1.1796882e-05
1.3541911e-05
1.2881628e-05
1.1452783e-05
1.0875879e-05
1.4499304e-05
2.1239333e-05
2.6216019e-05
2.6266727e-05
2.1226184e-05
1.4032682e-05
7.6269999e-06
4.7067839e-06
7.0928459e-06
6.4045987e-06
5.6280726e-06
5.9937907e-06
6.8223372e-06
7.6771419e-06
7.9995537e-06
7.8691256e-06
7.4323172e-06
7.0056392e-06
5.0139522e-06
2.326192e-06
1.4678964e-06
5.0927173e-06
7.0000328e-06
6.8339311e-06
7.5446061e-06
7.8200909e-06
8.1629944e-06
1.2345232e-05
2.2088842e-05
3.0881667e-05
3.4035142e-05
3.1032702e-05
2.3179234e-05
1.3868198e-05
6.1885087e-06
2.4783527e-06
3.5227223e-06
4.8992539e-06
7.8462078e-06
1.0523381e-05
1.1461503e-05
1.0490512e-05
8.373369e-06
6.718473e-06
5.8128201e-06
5.2582506e-06
4.8707403e-06
3.3552982e-06
9.7647457e-07
3.3476797e-06
4.1745622e-06
4.3138398e-06
4.6536685e-06
4.9131151e-06
6.7733294e-06
1.4546582e-05
2.4286849e-05
3.0741136e-05
3.1520122e-05
2.6839652e-05
1.8054348e-05
7.7634419e-06
8.6330678e-07
8.3424759e-07
2.7049688e-06
6.3797147e-06
1.1299668e-05
1.4854658e-05
1.4967911e-05
1.2170145e-05
7.9292509e-06
4.8425237e-06
3.7543257e-06
3.4504466e-06
3.0371253e-06
2.354383e-06
9.915324e-07
2.1078941e-06
2.7441748e-06
2.9263209e-06
2.9547007e-06
3.4965562e-06
6.0240103e-06
1.1846796e-05
1.7730154e-05
2.0865832e-05
2.0173096e-05
1.5882543e-05
9.4335781e-06
4.358892e-06
2.5885461e-06
5.48429e-06
4.9204452e-06
4.7152604e-06
9.2440498e-06
1.2868529e-05
1.3197828e-05
1.0497233e-05
7.5867924e-06
6.5491631e-06
6.5593334e-06
6.4164794e-06
5.3986145e-06
3.6430465e-06
1.6680431e-06
1.7265235e-06
4.3549983e-06
5.4497798e-06
5.7519637e-06
5.6480692e-06
5.9846756e-06
7.2266632e-06
8.902456e-06
9.5234874e-06
8.3585653e-06
6.1486505e-06
5.7435802e-06
1.0392067e-05
1.4301768e-05
1.4321304e-05
1.0615937e-05
5.4828283e-06
5.2236776e-06
7.875317e-06
8.5334311e-06
8.0741348e-06
8.2022219e-06
9.0968236e-06
1.0295777e-05
1.0443171e-05
8.670516e-06
6.3156188e-06
3.2381031e-06
1.0419377e-06
2.9763032e-06
6.2399069e-06
8.0487845e-06
8.8314604e-06
9.0516297e-06
8.2772177e-06
7.1220907e-06
5.9045404e-06
5.1863162e-06
5.9394154e-06
1.0864413e-05
1.9408568e-05
2.5807014e-05
2.4972413e-05
1.8018147e-05
9.2218165e-06
4.4858809e-06
4.8990714e-06
6.6928303e-06
7.9421438e-06
9.5813479e-06
1.2218667e-05
1.5050888e-05
1.5353326e-05
1.2162445e-05
7.7265358e-06
2.8073367e-06
1.6620167e-06
2.7082306e-06
7.1867519e-06
1.0021046e-05
1.2250356e-05
1.3031923e-05
1.2253704e-05
1.0282868e-05
7.9870321e-06
7.176359e-06
8.7500688e-06
1.4661521e-05
2.5510609e-05
3.3449426e-05
3.2528537e-05
2.4042697e-05
1.2812367e-05
5.3736493e-06
5.2209238e-06
7.2672934e-06
8.9398207e-06
1.0941961e-05
1.4683996e-05
1.8774337e-05
2.0749391e-05
1.7763633e-05
7.0188603e-06
2.2167708e-06
6.5189607e-06
1.0647637e-05
1.4243076e-05
1.5821592e-05
1.5539652e-05
1.3218632e-05
1.014709e-05
8.989039e-06
9.6423143e-06
1.4843403e-05
2.6100075e-05
3.6033896e-05
3.5836492e-05
2.6958197e-05
1.4818576e-05
6.8091404e-06
7.0746609e-06
9.5396285e-06
1.1207047e-05
1.2329565e-05
1.4612845e-05
1.9408927e-05
2.3238792e-05
2.3031007e-05
8.2640803e-06
2.290185e-06
4.4064393e-06
1.0065842e-05
1.5372736e-05
1.8398231e-05
1.8341854e-05
1.5739112e-05
1.1879555e-05
1.0473842e-05
1.0321945e-05
1.2438193e-05
2.1400565e-05
3.2378585e-05
3.4180119e-05
2.5904641e-05
1.4868043e-05
8.2244761e-06
9.6924514e-06
1.3216861e-05
1.5613455e-05
1.6664036e-05
1.6326993e-05
1.440039e-05
1.2449057e-05
1.0878935e-05
1.7920734e-06
2.40374e-06
7.8374415e-06
1.5096858e-05
2.0668627e-05
2.0983809e-05
1.8530458e-05
1.3505099e-05
1.2842792e-05
1.213448e-05
1.0871006e-05
1.4300558e-05
2.288421e-05
2.6548562e-05
2.1512257e-05
1.3272183e-05
9.3375342e-06
1.2601437e-05
1.6437606e-05
1.9478213e-05
2.1749465e-05
2.2667146e-05
2.1317197e-05
1.52012e-05
2.5924325e-06
3.0920546e-06
4.1029848e-06
1.2870867e-05
2.1825971e-05
2.3153639e-05
2.0692507e-05
1.6356224e-05
1.7333417e-05
1.5345805e-05
1.1994209e-05
9.9394875e-06
1.2529092e-05
1.6091382e-05
1.4908317e-05
1.0720571e-05
9.9535265e-06
1.4062707e-05
1.7742089e-05
2.0701351e-05
2.2064207e-05
2.113864e-05
1.6382033e-05
9.7816056e-06
1.1892911e-06
2.6446586e-06
7.7061693e-06
1.9906032e-05
2.3935708e-05
2.1801097e-05
2.1080687e-05
2.3050188e-05
1.9481449e-05
1.4004534e-05
9.7627864e-06
7.6097286e-06
7.4955672e-06
7.7166939e-06
7.8719652e-06
9.9191235e-06
1.3828161e-05
1.6681836e-05
1.7847085e-05
1.6842202e-05
1.376066e-05
6.0787113e-06
1.5417643e-06
2.550712e-06
1.3068768e-05
2.1213027e-05
1.9705728e-05
2.6636457e-05
2.8328231e-05
2.2628123e-05
1.5633074e-05
1.0024784e-05
6.7946273e-06
4.7385969e-06
3.4400899e-06
5.9953781e-06
9.4577519e-06
1.1990434e-05
1.3217575e-05
1.2593184e-05
9.2749745e-06
3.7189029e-06
1.7694136e-06
3.697592e-06
1.2327319e-05
1.4120357e-05
3.0284443e-05
3.0349959e-05
2.277546e-05
1.4829667e-05
9.3293722e-06
6.1557243e-06
4.192885e-06
2.6868335e-06
4.6921204e-06
8.3972263e-06
9.5575317e-06
8.8196223e-06
5.744893e-06
2.2166113e-06
1.323195e-06
9.9554802e-07
6.9371194e-06
2.7368132e-05
2.5883443e-05
1.7394956e-05
1.1163335e-05
7.7944416e-06
5.2229146e-06
3.5794462e-06
2.7218723e-06
3.4651992e-06
4.0875788e-06
4.0371343e-06
2.5355753e-06
1.4480653e-06
1.2865828e-06
3.5132708e-06
6.7886102e-06
8.1670604e-06
1.0016027e-05
8.1708127e-06
5.039912e-06
3.0934723e-06
2.5751952e-06
2.0531398e-06
1.4445684e-06
1.1978136e-06
1.9091056e-06
3.2027531e-06
3.0707655e-06
2.4241832e-06
1.9632214e-06
1.0084315e-06
1.0559686e-06
2.2537008e-06
4.8457601e-06
6.2133185e-06
7.3368867e-06
9.4450998e-06
4.0700651e-06
3.5134617e-06
8.5069401e-06
7.8882232e-06
4.5978141e-06
8.4545102e-06
1.1614226e-05
1.5228406e-05
1.9178598e-05
2.5391985e-05
1.9572852e-05
1.0114556e-05
9.2511509e-06
1.3330793e-05
2.0101005e-05
2.4840538e-05
7.3078524e-06
2.5177792e-06
2.4112635e-06
7.8626746e-06
1.1619321e-05
1.5392682e-05
1.995339e-05
2.4856767e-05
2.9251846e-05
3.1808532e-05
2.2237884e-05
1.2855138e-05
1.3832898e-05
2.0396124e-05
3.3877813e-05
3.7034748e-05
2.1166593e-05
1.2911891e-05
7.0439811e-06
3.2129411e-06
1.0258528e-05
1.5307321e-05
1.9479358e-05
2.2989642e-05
2.6659077e-05
3.0717041e-05
3.4430267e-05
3.4630139e-05
2.2846371e-05
1.4661974e-05
1.9046714e-05
2.7246035e-05
3.9193963e-05
3.9334783e-05
2.8560399e-05
2.6155321e-05
1.6904458e-05
5.4044228e-06
3.6522435e-06
1.5633938e-05
2.4279276e-05
2.960848e-05
3.207151e-05
3.3103364e-05
3.4197599e-05
3.6130597e-05
3.8055722e-05
3.5971697e-05
2.4076154e-05
1.6810476e-05
2.2937728e-05
3.0859701e-05
3.8495489e-05
3.7332746e-05
3.2703974e-05
3.4482781e-05
2.6616822e-05
1.286852e-05
3.238702e-06
3.1768317e-06
2.0060133e-05
3.205298e-05
3.9093472e-05
4.1244186e-05
4.0605285e-05
3.9376918e-05
3.8872718e-05
3.9432771e-05
3.9670442e-05
3.58862e-05
2.7300484e-05
2.1964419e-05
2.5661454e-05
3.1679733e-05
3.591573e-05
3.4986054e-05
3.4492272e-05
3.7745615e-05
3.2207888e-05
1.9655224e-05
8.6102349e-06
3.0906693e-06
1.6029208e-05
3.2561319e-05
4.2787157e-05
4.6431839e-05
4.5841635e-05
4.3725904e-05
4.1673333e-05
4.0679527e-05
4.067943e-05
3.9212794e-05
3.4493807e-05
3.2648476e-05
3.3317022e-05
3.1413175e-05
3.215757e-05
3.3805113e-05
3.3775681e-05
3.4974168e-05
3.7810217e-05
3.4002507e-05
2.4410113e-05
1.2906188e-05
7.620108e-06
2.6752679e-06
7.983836e-06
2.9420128e-05
4.0408928e-05
4.4855755e-05
4.5325279e-05
4.3711952e-05
4.1654341e-05
4.0419209e-05
4.043823e-05
4.0269025e-05
3.6796051e-05
3.2098651e-05
3.7863254e-05
4.5888042e-05
4.2238902e-05
3.558037e-05
3.3724941e-05
3.3455933e-05
3.5091436e-05
3.7202742e-05
3.4657409e-05
2.7823441e-05
1.7796699e-05
1.1750585e-05
4.4930525e-06
3.1747179e-05
5.0154006e-05
5.5110894e-05
5.2594328e-05
4.78807e-05
4.3690216e-05
4.1159411e-05
4.0765453e-05
4.1631932e-05
4.0982046e-05
3.609828e-05
3.0444723e-05
3.9556698e-05
5.2307296e-05
5.1205632e-05
4.1237868e-05
3.5496541e-05
3.4304197e-05
3.583046e-05
3.7445578e-05
3.5987823e-05
3.1422451e-05
2.3878945e-05
1.7845165e-05
9.6458472e-06
3.6913148e-06
4.646291e-06
2.8225749e-05
4.7417507e-05
5.4214069e-05
5.2819649e-05
4.7896312e-05
4.3559686e-05
4.1951553e-05
4.3775867e-05
4.7231373e-05
4.7851501e-05
4.1968354e-05
3.247305e-05
3.6062581e-05
4.9197351e-05
5.1513373e-05
4.2581396e-05
3.5681148e-05
3.5255932e-05
3.725784e-05
3.9021659e-05
3.8617511e-05
3.581166e-05
3.050144e-05
2.4584918e-05
1.3996094e-05
5.9430053e-06
1.1872343e-05
2.0780354e-05
3.1735735e-05
3.9557111e-05
4.2111096e-05
4.1177756e-05
4.0363221e-05
4.4635728e-05
5.4399036e-05
6.2855072e-05
6.3582701e-05
5.4541786e-05
3.9370931e-05
3.0184545e-05
3.7206659e-05
4.2269976e-05
3.6539544e-05
3.1176079e-05
3.2550352e-05
3.6998968e-05
4.0436465e-05
4.1340661e-05
3.9887228e-05
3.6062447e-05
3.0160038e-05
1.7877802e-05
6.8456054e-06
6.3650644e-06
1.3822196e-05
1.8941489e-05
2.5096716e-05
2.9818387e-05
3.2952202e-05
4.1251923e-05
5.8752783e-05
7.6129169e-05
8.4154354e-05
8.0327187e-05
6.591628e-05
4.6235808e-05
2.7235455e-05
2.2668111e-05
2.8032966e-05
2.7512769e-05
2.8996625e-05
3.3374978e-05
3.7302807e-05
3.9635271e-05
4.004723e-05
3.9026688e-05
3.664517e-05
3.2506569e-05
2.3639186e-05
1.1647711e-05
1.546861e-06
7.8070014e-06
1.0914531e-05
1.4641635e-05
1.8772039e-05
2.2445885e-05
3.1034344e-05
5.2286339e-05
7.7146479e-05
9.2527999e-05
9.4700672e-05
8.4939863e-05
6.5202271e-05
4.4715649e-05
2.3093959e-05
1.0539202e-05
1.85787e-05
2.9065875e-05
4.0347014e-05
4.6974602e-05
4.7142496e-05
4.2351519e-05
3.5335515e-05
2.8350184e-05
2.2718897e-05
1.8314047e-05
1.3875301e-05
1.1841713e-05
2.7374049e-06
7.0921548e-06
9.0848865e-06
1.1510689e-05
1.3505706e-05
1.8044067e-05
3.1798272e-05
5.4018776e-05
7.4268951e-05
8.440104e-05
8.2665934e-05
7.0140596e-05
4.8943804e-05
3.1949804e-05
1.7487482e-06
2.5546326e-06
1.6903477e-05
3.2201341e-05
4.7875017e-05
5.5342532e-05
5.3434913e-05
4.3989406e-05
3.1376914e-05
2.1753973e-05
1.657954e-05
1.2897622e-05
9.4297295e-06
4.9465996e-06
2.6402711e-06
4.4042776e-06
9.7977674e-06
1.4607018e-05
1.853758e-05
2.3552083e-05
3.130798e-05
4.1516073e-05
5.1447351e-05
5.5896948e-05
5.2743781e-05
4.234488e-05
3.0809039e-05
2.2499874e-05
1.2605742e-05
2.1693045e-05
2.3637288e-05
2.5843984e-05
3.9697045e-05
4.8047746e-05
4.6230881e-05
3.7456796e-05
2.8773383e-05
2.3961442e-05
2.0316379e-05
1.6030436e-05
1.2292044e-05
8.8358186e-06
3.8641294e-06
4.769058e-06
1.8509478e-05
2.8755647e-05
3.5001009e-05
3.8143622e-05
3.9232282e-05
3.8414656e-05
3.589143e-05
3.2961055e-05
2.7902675e-05
2.5527704e-05
3.3568651e-05
4.9276224e-05
5.8833702e-05
5.4765541e-05
3.8533654e-05
2.3626481e-05
2.5269138e-05
3.4819056e-05
3.6012289e-05
3.2345876e-05
2.9684228e-05
2.7595783e-05
2.3628538e-05
1.7533268e-05
1.2394467e-05
1.0369357e-05
3.2945875e-06
4.7199712e-06
1.5812893e-05
2.9079137e-05
3.606139e-05
4.0478035e-05
4.2560678e-05
4.2296649e-05
3.914438e-05
3.3746923e-05
2.9025575e-05
3.2920391e-05
4.9614576e-05
7.1450449e-05
8.276247e-05
7.6816548e-05
5.5582712e-05
3.0709384e-05
2.0676489e-05
2.9425299e-05
3.3204502e-05
3.2190935e-05
3.1809184e-05
3.2154429e-05
3.0849139e-05
2.5058969e-05
1.5872003e-05
1.0304394e-05
3.6541997e-06
1.2995144e-05
2.3644221e-05
3.0648941e-05
3.6949251e-05
4.0663234e-05
4.1796418e-05
4.0593994e-05
3.870351e-05
3.7182957e-05
4.0676823e-05
5.7919338e-05
8.271552e-05
9.6525868e-05
9.0490055e-05
6.6706672e-05
3.8249922e-05
2.6347656e-05
3.2719206e-05
3.4417508e-05
3.3014786e-05
3.261584e-05
3.4314006e-05
3.6313798e-05
3.3523195e-05
2.0957788e-05
6.3840525e-06
9.4712384e-06
1.7392172e-05
2.4539075e-05
3.3251558e-05
3.8826306e-05
4.1078833e-05
4.0097391e-05
3.885614e-05
3.899001e-05
4.1586366e-05
5.5610512e-05
8.1461057e-05
9.9049488e-05
9.4623625e-05
7.0183065e-05
4.2061026e-05
3.3244309e-05
3.8048589e-05
3.6213511e-05
3.3579423e-05
3.2313222e-05
3.2413364e-05
3.3364307e-05
3.219461e-05
2.2773468e-05
9.8594711e-06
6.5035216e-06
1.1877204e-05
1.8960578e-05
3.0366202e-05
3.8422391e-05
4.1857781e-05
4.0749457e-05
3.9355386e-05
3.9489004e-05
3.9916085e-05
4.6728506e-05
6.8172001e-05
8.8671731e-05
8.7948102e-05
6.5646437e-05
4.2324125e-05
4.0229135e-05
4.1936714e-05
3.8659905e-05
3.5787252e-05
3.3687094e-05
3.0902652e-05
2.579002e-05
1.8372965e-05
1.3938548e-05
2.6550841e-06
2.1102029e-06
7.8715125e-06
1.4137472e-05
2.7255724e-05
3.8468109e-05
4.3454944e-05
4.2324803e-05
4.1371315e-05
4.1520197e-05
3.9936628e-05
3.8733912e-05
4.8473267e-05
6.6348529e-05
7.0140771e-05
5.4468646e-05
4.1246869e-05
4.4921149e-05
4.4095492e-05
4.0286012e-05
3.7221414e-05
3.524862e-05
3.2077242e-05
2.4489568e-05
1.1995531e-05
3.3052769e-06
4.8627559e-06
9.4874899e-06
2.2162273e-05
3.6675311e-05
4.4102976e-05
4.33244e-05
4.483127e-05
4.5767434e-05
4.2080687e-05
3.5820005e-05
3.3463713e-05
4.0470201e-05
4.5745737e-05
3.9609427e-05
3.9639229e-05
4.568555e-05
4.3638717e-05
3.8750475e-05
3.3758296e-05
2.978699e-05
2.4740411e-05
1.6091838e-05
1.0219844e-05
3.4149286e-06
1.4415672e-05
3.030114e-05
4.073976e-05
4.2363532e-05
4.8805609e-05
5.0809443e-05
4.3932341e-05
3.3678446e-05
2.6872388e-05
2.4001366e-05
2.4533911e-05
2.5193851e-05
3.6718028e-05
4.3418842e-05
4.0741789e-05
3.4402037e-05
2.6515414e-05
1.8964641e-05
1.2022113e-05
9.0297917e-06
2.7713706e-06
4.4547408e-06
1.9085068e-05
3.0972952e-05
3.7705851e-05
5.1246876e-05
5.2907508e-05
4.210634e-05
2.8841218e-05
2.1915493e-05
1.8231217e-05
1.4556757e-05
1.4948229e-05
3.1162629e-05
3.820005e-05
3.4521739e-05
2.6659765e-05
1.7170735e-05
9.5345864e-06
6.0403754e-06
2.7259394e-06
4.8906208e-06
1.5117997e-05
2.6966357e-05
4.6967537e-05
4.6892308e-05
3.4025384e-05
2.1941917e-05
1.6338292e-05
1.467903e-05
1.2060474e-05
1.0569028e-05
2.2418449e-05
2.9393525e-05
2.539233e-05
1.7898358e-05
9.9440645e-06
5.3726749e-06
2.5025412e-06
2.8689483e-06
1.0204182e-05
3.0105787e-05
2.7818389e-05
2.1433149e-05
1.6066649e-05
1.2042661e-05
1.1063038e-05
1.0688357e-05
9.5491245e-06
1.1794899e-05
1.4470281e-05
1.1538401e-05
9.3508911e-06
3.7127572e-06
6.5638809e-06
4.654965e-06
1.0834686e-05
1.3433448e-05
9.0494109e-06
8.5617359e-06
8.1533676e-06
7.5876332e-06
6.1942541e-06
5.6472825e-06
4.0972319e-06
1.6848869e-06
3.6594397e-06
7.4778838e-06
6.4913797e-06
4.4939199e-06
2.5192294e-06
2.2607015e-06
4.7004213e-06
6.5577928e-06
1.1056297e-05
1.3160124e-05
6.0087373e-06
5.3023495e-06
1.00088e-05
9.855894e-06
4.908012e-06
8.5876222e-06
1.2085509e-05
1.6301615e-05
2.270592e-05
3.4240005e-05
3.1386313e-05
1.7582872e-05
8.9795305e-06
1.5404617e-05
2.7400275e-05
3.323639e-05
9.7068472e-06
3.9112163e-06
2.4322128e-06
8.1361113e-06
1.1861812e-05
1.5372677e-05
2.015556e-05
2.6476288e-05
3.4487336e-05
4.3293594e-05
3.681451e-05
2.1571856e-05
1.3538023e-05
2.2819794e-05
4.4854801e-05
5.0070472e-05
3.0697713e-05
1.7322828e-05
8.6680806e-06
3.5020578e-06
1.2633854e-05
1.8752772e-05
2.2792497e-05
2.5489699e-05
2.8638734e-05
3.3658368e-05
4.1336869e-05
4.8964866e-05
3.9074899e-05
2.3855499e-05
2.0067543e-05
3.1416915e-05
5.1130512e-05
5.3482392e-05
4.10475e-05
3.4148039e-05
2.1463325e-05
6.3557334e-06
4.1476408e-06
1.981988e-05
3.0405322e-05
3.6058365e-05
3.7652556e-05
3.7233797e-05
3.7432316e-05
4.0059042e-05
4.6244299e-05
5.185219e-05
4.1615427e-05
2.8080744e-05
2.7241749e-05
3.643189e-05
4.9387118e-05
5.0441599e-05
4.5315787e-05
4.3915941e-05
3.2714205e-05
1.5780261e-05
3.6764704e-06
3.9195648e-06
2.5897376e-05
3.9998435e-05
4.7788482e-05
4.9669206e-05
4.7961503e-05
4.5176396e-05
4.3529593e-05
4.4887937e-05
4.9908717e-05
5.3399372e-05
4.6338167e-05
3.7785753e-05
3.4881266e-05
3.8294387e-05
4.4791999e-05
4.5678096e-05
4.5604586e-05
4.6976199e-05
3.8603396e-05
2.4097574e-05
1.0254902e-05
3.1018572e-06
2.1478306e-05
4.2696728e-05
5.4921614e-05
5.8696726e-05
5.7040739e-05
5.2957563e-05
4.8798312e-05
4.6732509e-05
4.8563235e-05
5.2655627e-05
5.3916653e-05
5.3455659e-05
5.4061058e-05
4.7476448e-05
4.1456483e-05
4.172493e-05
4.1964077e-05
4.3883079e-05
4.5838156e-05
3.9859505e-05
2.8731815e-05
1.4853462e-05
7.7192693e-06
2.8066892e-06
1.1282094e-05
4.1690817e-05
5.671059e-05
6.1596326e-05
6.0420984e-05
5.6285425e-05
5.1526131e-05
4.8329945e-05
4.8846067e-05
5.2656778e-05
5.407926e-05
5.2816146e-05
6.0135782e-05
6.9988539e-05
6.4522745e-05
5.0959235e-05
4.3524962e-05
4.0823237e-05
4.1948169e-05
4.3413451e-05
3.9220063e-05
3.0905834e-05
1.9295551e-05
1.1661167e-05
4.8352722e-06
4.142768e-05
6.6332718e-05
7.3284686e-05
6.9924313e-05
6.2840463e-05
5.5457318e-05
5.0540625e-05
5.0409767e-05
5.5027359e-05
5.8774869e-05
5.5530932e-05
5.1138268e-05
6.2324171e-05
7.728807e-05
7.6253113e-05
6.2505692e-05
5.0456454e-05
4.3509944e-05
4.2134302e-05
4.2485856e-05
3.9817853e-05
3.4018698e-05
2.5573905e-05
1.8338987e-05
1.0759179e-05
3.8757829e-06
5.7713541e-06
3.9962744e-05
6.4326233e-05
7.1397917e-05
6.8238878e-05
6.0643421e-05
5.3836988e-05
5.2548512e-05
5.8490519e-05
6.6958719e-05
6.9964482e-05
6.3100206e-05
5.2603825e-05
5.7927933e-05
7.3141635e-05
7.5849798e-05
6.5491102e-05
5.5261588e-05
4.9223108e-05
4.6455526e-05
4.5654783e-05
4.380484e-05
4.0219521e-05
3.4471989e-05
2.7476042e-05
1.6626656e-05
6.3445477e-06
1.4130354e-05
2.9436019e-05
4.2894749e-05
5.0838953e-05
5.2512756e-05
5.0584961e-05
5.0912642e-05
6.0780228e-05
7.7454986e-05
8.9278604e-05
8.9752004e-05
7.8188303e-05
5.9750344e-05
4.95837e-05
5.7774348e-05
6.3434855e-05
5.7365175e-05
5.1870239e-05
5.1903205e-05
5.3242113e-05
5.3511638e-05
5.2145555e-05
4.931783e-05
4.4461372e-05
3.6747416e-05
2.2798543e-05
8.5608594e-06
8.4304964e-06
1.7583542e-05
2.2184221e-05
2.8522901e-05
3.4773681e-05
4.1527135e-05
5.7895887e-05
8.4417359e-05
0.00010595622
0.00011400398
0.00010828558
9.0973518e-05
6.6926179e-05
4.3049969e-05
3.775725e-05
4.4566109e-05
4.5980505e-05
4.9592825e-05
5.4989577e-05
5.8689566e-05
5.9801388e-05
5.8320552e-05
5.5381968e-05
5.1055316e-05
4.4268829e-05
3.2243296e-05
1.8832849e-05
1.7280806e-06
1.1496801e-05
1.2794827e-05
1.6013735e-05
2.209972e-05
2.9737751e-05
4.6660001e-05
7.7302471e-05
0.0001073466
0.00012303546
0.00012398645
0.000112462
8.9866045e-05
6.7365395e-05
3.6710907e-05
2.0717194e-05
3.1415458e-05
4.6669618e-05
6.1529593e-05
7.0077446e-05
7.0432845e-05
6.4236898e-05
5.4786751e-05
4.5167963e-05
3.7016173e-05
3.0275481e-05
2.3240675e-05
1.8284397e-05
3.0603806e-06
8.280376e-06
9.8029197e-06
1.5729013e-05
2.117177e-05
3.0205019e-05
5.0547889e-05
7.923238e-05
0.00010319803
0.00011388707
0.00011104622
9.6334738e-05
7.188535e-05
5.2782792e-05
2.1661577e-06
4.6889854e-06
2.9118305e-05
5.0466108e-05
7.063561e-05
8.0368707e-05
7.8587898e-05
6.6991306e-05
5.02259e-05
3.5219366e-05
2.5521579e-05
1.8901599e-05
1.2988599e-05
5.3225298e-06
2.7280888e-06
4.9181965e-06
1.5231355e-05
2.4946328e-05
3.2420534e-05
3.985529e-05
5.0052113e-05
6.3414606e-05
7.6094395e-05
8.142293e-05
7.7339714e-05
6.5005632e-05
5.1967457e-05
4.4692067e-05
1.9258034e-05
3.3978875e-05
3.8961425e-05
4.4158229e-05
6.2377134e-05
7.2898334e-05
7.0284994e-05
5.7005266e-05
4.1505388e-05
3.0654452e-05
2.3306352e-05
1.6699655e-05
1.1045658e-05
7.1691313e-06
4.4385884e-06
5.642503e-06
2.4969649e-05
3.9022735e-05
4.8392686e-05
5.3529215e-05
5.6272653e-05
5.7158975e-05
5.5643302e-05
5.3305926e-05
4.7581465e-05
4.5382745e-05
5.5207603e-05
7.311514e-05
8.3051026e-05
7.7532228e-05
5.738389e-05
4.0793944e-05
4.5831126e-05
5.7299461e-05
5.5180215e-05
4.4485366e-05
3.6381055e-05
3.1563769e-05
2.5870078e-05
1.8518398e-05
1.2224703e-05
7.7353412e-06
5.5516289e-06
4.5034601e-06
2.0362036e-05
3.4720436e-05
4.3343216e-05
4.8612549e-05
5.1706092e-05
5.3272361e-05
5.279237e-05
5.0409228e-05
4.7697282e-05
5.3515731e-05
7.4123852e-05
9.8929214e-05
0.00011040583
0.00010300672
7.7800931e-05
4.8136617e-05
3.7560241e-05
4.7726214e-05
4.6247555e-05
3.9958426e-05
3.807047e-05
3.921571e-05
3.8413855e-05
3.1667644e-05
2.0639033e-05
1.3224905e-05
3.5042387e-06
1.5059941e-05
2.60027e-05
3.4256167e-05
4.1038397e-05
4.5479706e-05
4.7823275e-05
4.8479124e-05
4.9838985e-05
5.3367025e-05
6.1413456e-05
8.4286872e-05
0.00011244022
0.00012578336
0.00011854598
9.1312409e-05
5.7478758e-05
4.268176e-05
4.6849243e-05
4.2972786e-05
3.9204817e-05
4.0010081e-05
4.4451214e-05
4.8380813e-05
4.5345221e-05
2.9052696e-05
9.8761228e-06
1.049686e-05
1.8170502e-05
2.6858671e-05
3.6553979e-05
4.3363734e-05
4.6819588e-05
4.6846139e-05
4.6882012e-05
5.0363275e-05
5.8563459e-05
8.049997e-05
0.00011177949
0.0001290805
0.00012353065
9.5869526e-05
6.2621651e-05
4.9465392e-05
4.8150578e-05
4.207192e-05
3.957654e-05
4.0803556e-05
4.3646655e-05
4.6036423e-05
4.418511e-05
3.0731352e-05
1.2859038e-05
6.799302e-06
1.2247103e-05
2.1492372e-05
3.4725171e-05
4.4313832e-05
4.9584356e-05
4.9327666e-05
4.7813296e-05
4.8290172e-05
5.1552471e-05
6.5704083e-05
9.6256134e-05
0.00011929385
0.00011706556
9.0948959e-05
6.3015636e-05
5.5550477e-05
4.9454465e-05
4.3338313e-05
4.1684685e-05
4.2140835e-05
4.106266e-05
3.600248e-05
2.618374e-05
1.7970163e-05
4.0130663e-06
2.3321462e-06
8.2417237e-06
1.6996891e-05
3.2997567e-05
4.5844513e-05
5.3507727e-05
5.3750584e-05
5.2435626e-05
5.1247436e-05
4.8975892e-05
5.0522631e-05
6.9581705e-05
9.4369386e-05
9.7558058e-05
7.7817324e-05
6.1366886e-05
5.8089875e-05
5.001835e-05
4.3800051e-05
4.1883868e-05
4.2201409e-05
3.9931837e-05
3.1229066e-05
1.5797027e-05
4.4595765e-06
4.8680149e-06
1.1643008e-05
2.7850675e-05
4.4606196e-05
5.5498577e-05
5.7472503e-05
5.9152936e-05
5.8297835e-05
5.1913879e-05
4.3502263e-05
4.5359298e-05
6.0590777e-05
6.8109508e-05
5.9480981e-05
5.7855866e-05
5.6993024e-05
4.8874842e-05
4.1005553e-05
3.6273828e-05
3.400744e-05
2.9483372e-05
1.9616995e-05
1.2362142e-05
3.4863092e-06
1.8160291e-05
3.7730744e-05
5.2168735e-05
5.8225956e-05
6.5626536e-05
6.6246555e-05
5.563704e-05
4.0077916e-05
3.1684011e-05
3.4525928e-05
3.9600617e-05
4.0840419e-05
5.2171146e-05
5.3571469e-05
4.5912973e-05
3.5901333e-05
2.7478258e-05
2.1189097e-05
1.3975264e-05
1.0083745e-05
3.2853754e-06
5.0275178e-06
2.4527474e-05
4.0536489e-05
5.310273e-05
6.8952554e-05
7.0145708e-05
5.515585e-05
3.5119319e-05
2.4035923e-05
2.3417731e-05
2.3952409e-05
2.7061502e-05
4.3524598e-05
4.6954318e-05
3.9716167e-05
2.812775e-05
1.7272479e-05
1.0183146e-05
6.883577e-06
2.8357272e-06
5.6310928e-06
2.0314427e-05
3.8610236e-05
6.2845421e-05
6.3839627e-05
4.6896435e-05
2.8355316e-05
1.739332e-05
1.7354703e-05
1.9078141e-05
1.9897342e-05
3.1076495e-05
3.5627247e-05
2.9846981e-05
1.9897226e-05
1.0460683e-05
5.699108e-06
2.5754873e-06
4.1258664e-06
1.4495053e-05
3.9770223e-05
3.948486e-05
3.1155806e-05
2.1503474e-05
1.415284e-05
1.2194547e-05
1.4643312e-05
1.5815529e-05
1.6363721e-05
1.8769269e-05
1.4886869e-05
1.3267051e-05
4.2184378e-06
1.0055723e-05
5.9295161e-06
1.5294139e-05
1.6696909e-05
1.2249399e-05
1.1068813e-05
9.3355865e-06
1.1100059e-05
9.3084117e-06
7.2594584e-06
4.202977e-06
1.8765554e-06
4.9371168e-06
9.7801017e-06
8.3425789e-06
5.741806e-06
2.7005698e-06
2.2813691e-06
4.749128e-06
7.0927739e-06
1.3995514e-05
1.3719656e-05
5.8731971e-06
8.4764043e-06
1.376634e-05
1.1852015e-05
5.0620798e-06
8.7432866e-06
1.2264525e-05
1.6616128e-05
2.5908787e-05
4.0939293e-05
4.1025582e-05
2.3735402e-05
1.1582606e-05
1.9067618e-05
3.7243053e-05
4.3387036e-05
1.2435516e-05
5.0250772e-06
2.5626016e-06
9.4197576e-06
1.323811e-05
1.6228339e-05
2.0442212e-05
2.7164446e-05
3.7553595e-05
5.1509204e-05
4.9403924e-05
3.2662139e-05
1.6297945e-05
2.4219247e-05
5.7377991e-05
6.5892522e-05
4.2335804e-05
2.2304477e-05
1.0784454e-05
3.8819111e-06
1.5167501e-05
2.2277467e-05
2.6523327e-05
2.8490242e-05
3.0623481e-05
3.5585085e-05
4.5489777e-05
5.8576568e-05
5.345525e-05
3.5026981e-05
2.1513304e-05
3.4191385e-05
6.3974062e-05
7.01552e-05
5.6103661e-05
4.353571e-05
2.6314888e-05
7.7762623e-06
4.7215477e-06
2.4529109e-05
3.6701009e-05
4.2705131e-05
4.3539584e-05
4.1773898e-05
4.0620894e-05
4.2859352e-05
5.1384396e-05
6.309893e-05
5.7736337e-05
4.1270933e-05
3.0211685e-05
4.089978e-05
6.0878965e-05
6.5509784e-05
6.0106467e-05
5.5050172e-05
3.9578479e-05
1.9608486e-05
4.498903e-06
4.7457584e-06
3.1839419e-05
4.854618e-05
5.745945e-05
5.9083751e-05
5.6163052e-05
5.1565583e-05
4.8090605e-05
4.8705476e-05
5.6583662e-05
6.6918697e-05
6.4751589e-05
5.5552934e-05
4.3718147e-05
4.3428307e-05
5.3814934e-05
5.776424e-05
5.8534931e-05
5.7800066e-05
4.6156379e-05
2.9237349e-05
1.1958493e-05
3.324546e-06
2.7324855e-05
5.3958758e-05
6.8688883e-05
7.2391891e-05
6.9260904e-05
6.3059833e-05
5.6389138e-05
5.1960243e-05
5.3578592e-05
6.2037784e-05
7.0228839e-05
7.4170095e-05
7.5593606e-05
6.3968008e-05
4.9044299e-05
4.8535277e-05
5.0692885e-05
5.4104734e-05
5.5189316e-05
4.6958262e-05
3.3634253e-05
1.7096619e-05
8.0572377e-06
2.9292245e-06
1.4123754e-05
5.5570817e-05
7.5064812e-05
8.0076875e-05
7.6775461e-05
6.9828162e-05
6.1732095e-05
5.5370857e-05
5.44142e-05
6.0655009e-05
6.7563805e-05
7.1680007e-05
8.2169956e-05
9.2498207e-05
8.5733209e-05
6.4764e-05
5.0940471e-05
4.7017505e-05
4.9313327e-05
5.0703174e-05
4.4893959e-05
3.4584986e-05
2.11832e-05
1.1663955e-05
5.1413054e-06
5.2662176e-05
8.5362491e-05
9.3870082e-05
8.8837204e-05
7.8607598e-05
6.7403151e-05
5.880552e-05
5.694043e-05
6.4069368e-05
7.2794561e-05
7.2651655e-05
7.1042929e-05
8.4301226e-05
9.9493905e-05
9.8134144e-05
8.1726539e-05
6.2538923e-05
4.9965146e-05
4.7543241e-05
4.7737693e-05
4.3936816e-05
3.6593896e-05
2.7019616e-05
1.8281111e-05
1.1528447e-05
4.0125002e-06
6.9626179e-06
5.516506e-05
8.4361875e-05
9.0324485e-05
8.4137531e-05
7.3024737e-05
6.2775135e-05
6.0347216e-05
6.9956594e-05
8.3591931e-05
8.919317e-05
8.1933212e-05
7.1929814e-05
7.8689501e-05
9.3722778e-05
9.6279074e-05
8.5774598e-05
7.2187145e-05
5.9786281e-05
5.3048446e-05
5.0739593e-05
4.7892834e-05
4.3407655e-05
3.7126604e-05
2.9140523e-05
1.8597039e-05
6.8478593e-06
1.7082169e-05
4.1644299e-05
5.6226752e-05
6.257211e-05
6.2027168e-05
5.8065822e-05
5.9073196e-05
7.4863328e-05
9.7879631e-05
0.00011141329
0.00011068507
9.7236866e-05
7.7627593e-05
6.7944379e-05
7.6044139e-05
8.1413069e-05
7.6038409e-05
7.055695e-05
6.8235343e-05
6.5915154e-05
6.3222245e-05
5.9902628e-05
5.5891915e-05
5.0231668e-05
4.1551035e-05
2.734528e-05
1.0671462e-05
1.2422928e-05
2.4783939e-05
2.6348531e-05
3.1444626e-05
3.8534394e-05
4.8716427e-05
7.4729825e-05
0.00010812029
0.00012944229