/*--------------------------------*- C++ -*----------------------------------*\
| =========                 |                                                 |
| \\      /  F ield         | OpenFOAM: The Open Source CFD Toolbox           |
|  \\    /   O peration     | Version:  2406                                  |
|   \\  /    A nd           | Website:  www.openfoam.com                      |
|    \\/     M anipulation  |                                                 |
\*---------------------------------------------------------------------------*/
FoamFile
{
    version     2.0;
    format      ascii;
    arch        "LSB;label=32;scalar=64";
    class       volScalarField;
    location    "250";
    object      p;
}
// * * * * * * * * * * * * * * * * * * * * * * * * * * * * * * * * * * * * * //

dimensions      [0 2 -2 0 0 0 0];

internalField   nonuniform List<scalar> 
150387
(
0.0051970166
0.0058520973
0.005762653
0.0057489147
0.0057093311
0.0054590282
0.0057462819
0.0067075883
0.006042503
0.0059221019
0.0058453927
0.0057793715
0.0057284581
0.0056924938
0.0057378139
0.005678096
0.0052919209
0.0053684212
0.0062965865
0.0072580121
0.0070639565
0.0062530647
0.0060573902
0.0058639675
0.0057257786
0.0056267876
0.0055762525
0.0055618111
0.00562203
0.0055877355
0.0051549485
0.0050053164
0.0054689495
0.0062709003
0.006619087
0.007056169
0.0069193755
0.0068006646
0.0065719811
0.0062920775
0.0059813427
0.0057312997
0.0055553056
0.0054473499
0.0053908806
0.0053830951
0.0054392928
0.0054386274
0.0050351369
0.0047598497
0.0048695408
0.0053675388
0.0060115245
0.0066655031
0.0068124464
0.0065540269
0.0074132791
0.0071671485
0.0067512754
0.0062686199
0.0058378422
0.0055259663
0.0053353487
0.0052230089
0.0051694225
0.0051700049
0.0052246174
0.0052431293
0.0049316645
0.004635514
0.0045661885
0.0048206158
0.0053706553
0.0060406236
0.0064470873
0.0062988951
0.0061310386
0.0078864634
0.0074377991
0.0066613335
0.0059851124
0.0055038594
0.005202329
0.0050287847
0.0049444514
0.0049166259
0.0049371909
0.0049947975
0.005029977
0.0048197499
0.0045676702
0.0044401059
0.0045530932
0.0049174961
0.0054682364
0.0059172428
0.0060013312
0.0059203213
0.0058533269
0.0084084719
0.0079276918
0.0069895688
0.0060909393
0.0054230539
0.0049998213
0.0047808179
0.004686217
0.0046578456
0.0046699446
0.0047163376
0.0047785506
0.0048199593
0.0047047364
0.0045216502
0.0043997449
0.0044379883
0.004664587
0.0050713402
0.0054941879
0.0056798919
0.0057183165
0.005727506
0.0057115654
0.0084494643
0.0081611439
0.0072137456
0.0060798958
0.0052205006
0.0047269876
0.0044916414
0.0044074268
0.004396944
0.0044204646
0.0044652085
0.0045294655
0.0045926363
0.0046307951
0.0045878411
0.0044773966
0.0043897051
0.004400068
0.0045463573
0.0048399213
0.0051871556
0.0054149358
0.0055196768
0.0055787187
0.0055875344
0.0088202307
0.0077956168
0.0062864593
0.0051574918
0.0045318102
0.0042588492
0.0041766017
0.0041833068
0.0042201643
0.0042665655
0.0043223252
0.0043896715
0.0044493714
0.0044852979
0.0044832719
0.0044330077
0.0043865165
0.0043977684
0.0045053122
0.0047246253
0.0049990394
0.0052302786
0.0053666425
0.0054586655
0.005497495
0.0055371534
0.0079260835
0.0063538188
0.0050704001
0.0043509493
0.0040656255
0.004008376
0.0040407176
0.004091643
0.0041351065
0.0041765116
0.0042291671
0.0042963822
0.0043554596
0.0043938087
0.0044120894
0.0043994769
0.0043867594
0.0044095957
0.0045016083
0.0046765976
0.0048977074
0.0051065913
0.0052587698
0.0053631774
0.0054257587
0.00545767
0.00765788
0.006298873
0.0051207096
0.0043891765
0.0040813427
0.0040083655
0.004036475
0.0040770517
0.0040950146
0.0040953346
0.004109471
0.0041584688
0.0042376545
0.0043072851
0.0043533564
0.0043841745
0.0043882108
0.0043962638
0.0044315258
0.0045176966
0.0046641395
0.0048492623
0.005034687
0.0051892842
0.0053017768
0.0053738218
0.0054143837
0.0065585641
0.0054565592
0.0047334904
0.0043601962
0.0042369486
0.0042187148
0.0042151913
0.0041779029
0.0041091205
0.0040461271
0.0040350111
0.0040930329
0.0041992211
0.0042862082
0.0043386166
0.0043800468
0.0043916086
0.0044111705
0.004456117
0.0045420965
0.0046726194
0.0048341293
0.0050050208
0.0051615037
0.0052844358
0.0053656002
0.0053983829
0.0053958661
0.0060455236
0.0052868196
0.0049052339
0.0047094251
0.0046183823
0.0045340086
0.0044145336
0.0042570682
0.0040930028
0.0039932678
0.0039794796
0.0040530445
0.0041826839
0.0042763107
0.0043243787
0.0043692569
0.0043905386
0.0044143523
0.004460868
0.0045464665
0.0046737613
0.0048328183
0.0050080598
0.0051798725
0.0053300393
0.0054296082
0.0054356756
0.0053849172
0.0057393221
0.0054734022
0.0053123569
0.0051747588
0.0050199124
0.0048241357
0.0045760876
0.0043197084
0.0041113301
0.0039959486
0.0039829687
0.0040557078
0.0041579859
0.004239874
0.0043502854
0.0043576891
0.0043832882
0.0044056689
0.004441063
0.0045205255
0.0046502399
0.0048151392
0.0049909898
0.0051584066
0.0052857525
0.0053602411
0.0053499921
0.0053051393
0.0058460245
0.005790634
0.005723465
0.005542937
0.0052707071
0.0049464602
0.0046433036
0.0043806877
0.0041812329
0.0040638597
0.004036807
0.0040800256
0.0041534179
0.0042068007
0.0042840133
0.0043169863
0.0043473787
0.0043731068
0.0044013289
0.0044627091
0.0045589468
0.0046694396
0.0047748797
0.0048621479
0.0049331113
0.0050006506
0.00506261
0.0052110609
0.005929947
0.0059329845
0.0057813141
0.0055420571
0.0052541693
0.0049384831
0.0046423495
0.0043917218
0.0042062412
0.0040938669
0.0040516657
0.0040588993
0.0040850755
0.0041148944
0.0041784594
0.0042397084
0.0042885769
0.0043212877
0.0043372939
0.004366068
0.004411292
0.0044611996
0.0045117635
0.0045702734
0.004667403
0.0048090956
0.0050401105
0.0052332142
0.0059039048
0.0058601328
0.0057375164
0.0055271159
0.0052548993
0.0049342471
0.004614519
0.0043415571
0.0041487393
0.0040397809
0.003998787
0.0039935419
0.0039864627
0.0039917736
0.004050418
0.0041451387
0.0042319997
0.0042731852
0.0042713869
0.0042678333
0.00427388
0.0042931222
0.0043431053
0.0044586645
0.004707407
0.0050875009
0.005490115
0.0055020467
0.0059027749
0.0058579013
0.0057512658
0.0055746928
0.0053213566
0.0049835072
0.0046144227
0.0042878021
0.0040660774
0.0039554705
0.0039288774
0.0039308649
0.0039140178
0.0039132832
0.0039762921
0.0040901409
0.0042112817
0.0042567738
0.0042409307
0.0042205223
0.0042180806
0.0042556063
0.0043743699
0.0046437115
0.0051984594
0.0060007914
0.0065470021
0.0059135833
0.0058403275
0.0056937159
0.0054763072
0.0051218013
0.0046800592
0.0042729908
0.0040013744
0.003875752
0.0038669379
0.0039008371
0.0039104418
0.0039178263
0.003990543
0.0041220203
0.0042561514
0.0043028364
0.0042879887
0.0042795211
0.0043117883
0.0044242644
0.004680318
0.0051636868
0.0059466252
0.0069331435
0.0070609605
0.0060136657
0.0060001671
0.0059064171
0.005735316
0.0053977083
0.0048680595
0.0043353314
0.0039814372
0.0038101057
0.0038100366
0.0038946472
0.0039694818
0.0040119443
0.0040993924
0.0042447614
0.004373402
0.0044222953
0.0044326056
0.0044704982
0.0045751674
0.0047968331
0.0051925022
0.0057780095
0.0064205711
0.0068077904
0.0069119405
0.0062117325
0.0061982654
0.0061296492
0.0058390567
0.0052519185
0.0045394916
0.0040569233
0.0037829134
0.0037568992
0.003886344
0.0040505501
0.0041769271
0.0042977389
0.004437809
0.0045520894
0.0046114082
0.0046704279
0.0047864754
0.0050125575
0.0053946081
0.0059568268
0.0065887143
0.0069790775
0.0068087577
0.0063457409
0.0064866389
0.0066070673
0.0064560921
0.0058892744
0.0049738982
0.0043095038
0.0038481902
0.0037314577
0.0038647085
0.0041099115
0.0043468579
0.0045467414
0.004676811
0.0047669239
0.0048411159
0.0049465295
0.005130336
0.005427813
0.0058420509
0.0063407369
0.0067219881
0.0069695726
0.0068551133
0.0067330847
0.0070449636
0.0072328037
0.0067645342
0.0057344721
0.0048721107
0.0041087742
0.0038022714
0.003862997
0.0041384526
0.004473307
0.004773695
0.0049405456
0.0049978095
0.0050735139
0.0051945167
0.0053843439
0.0056331572
0.0059197536
0.0061946256
0.006449798
0.0066635568
0.0073203616
0.0077958489
0.0077136738
0.0068047738
0.0059043539
0.0047561838
0.0040827603
0.0039565965
0.0041789636
0.0045557346
0.0049382606
0.0051927957
0.0052205035
0.0052738838
0.0053724811
0.0055161094
0.0056952752
0.0058732764
0.0060831207
0.0062467479
0.0079583717
0.008344501
0.0078621902
0.0073739579
0.0059581853
0.0047552829
0.004273898
0.0043302156
0.00465564
0.0050617175
0.0053850243
0.0054154095
0.0054269789
0.0054861856
0.0055927321
0.0057246649
0.0058494932
0.0059860009
0.0081824695
0.0082670345
0.0087771465
0.0074717612
0.005800479
0.0048969486
0.0046655419
0.004822785
0.0051491219
0.0054658014
0.0055520897
0.0055195206
0.0055408697
0.0056195596
0.0057145458
0.0057832358
0.0083796645
0.0082663
0.0070189633
0.0059780093
0.0053950556
0.005177613
0.0052548219
0.0054478747
0.005574981
0.0055535357
0.0055696644
0.0056130286
0.0064813131
0.0060060071
0.0055448453
0.0053617874
0.0054058784
0.0054976579
0.0058927851
0.0059034497
0.0058365796
0.0057428163
0.005715082
0.0056274412
0.0054070237
0.0054877522
0.0062658773
0.0060356321
0.0058571738
0.0057852665
0.0057073637
0.0056794016
0.0056483461
0.0056464394
0.0054142086
0.0049979403
0.0049640043
0.0056492146
0.0066041695
0.0068828171
0.0067840441
0.0063239456
0.0062169179
0.0059618528
0.0057848125
0.0056544749
0.0055611686
0.0055185856
0.0054957146
0.0055062679
0.0052996176
0.0048753135
0.0047153081
0.0050098936
0.0057754884
0.0062520728
0.0067360359
0.0067227752
0.0066784292
0.0064216193
0.0061635544
0.0058232453
0.0055979401
0.0054533498
0.0053671496
0.0053272707
0.0053108113
0.0053303718
0.0051933355
0.0047877583
0.0044882849
0.0045210915
0.0050439581
0.0056679006
0.0063083378
0.006464337
0.0064439755
0.0071435613
0.0069125839
0.0065107956
0.0060020068
0.0056141959
0.0053632528
0.0052136151
0.0051348447
0.0051036013
0.0051002732
0.0051273964
0.0050696264
0.0047583074
0.0044404468
0.0043265237
0.0045975892
0.0050540905
0.0057151853
0.0062198874
0.0061079537
0.0060899192
0.0076582214
0.0074493042
0.0070231404
0.0061711281
0.0056124666
0.0052236511
0.005000627
0.0048938233
0.0048576787
0.0048550547
0.0048780026
0.0049154821
0.0049147846
0.0047053118
0.0044336691
0.0042799788
0.0043926446
0.0046869652
0.0052404385
0.005679701
0.0058801104
0.0058059167
0.0058309403
0.0079630567
0.0072338069
0.0062753672
0.0055111867
0.0049991242
0.0047166595
0.0046032145
0.0045789476
0.0045929165
0.0046245761
0.0046757811
0.0047245294
0.0047511798
0.0046301428
0.0044374086
0.0042972994
0.0043275831
0.0045156208
0.0049264547
0.0053396416
0.0055775982
0.005657557
0.0056919258
0.0056125356
0.0080986226
0.0072964909
0.0063697232
0.0053399144
0.0046837517
0.0043768952
0.0042748443
0.0042810598
0.0043277753
0.0043812418
0.0044365475
0.0045046842
0.0045601781
0.0045927169
0.0045396787
0.0044277824
0.0043306816
0.0043326818
0.0044605545
0.0047552949
0.0050982475
0.0053472332
0.0054640068
0.0055456509
0.0055769889
0.0078358085
0.0065880051
0.0053112836
0.0044701385
0.004105011
0.0040122385
0.0040421936
0.0041197765
0.0041919258
0.0042497313
0.0043066994
0.0043765653
0.0044309848
0.0044654602
0.004454755
0.0044048695
0.0043563857
0.0043662202
0.0044679257
0.0046890607
0.0049585637
0.0051977758
0.0053364092
0.0054412186
0.005469311
0.0054930899
0.0076565194
0.0064122737
0.0052265395
0.004272137
0.0038798406
0.003808624
0.0038827427
0.0039923666
0.0040768997
0.0041246236
0.0041646244
0.0042169511
0.0042917185
0.0043466604
0.0043875097
0.0043972446
0.004381711
0.0043704321
0.0043995197
0.0044957649
0.0046767484
0.0048938734
0.0051017635
0.0052474711
0.0053560616
0.0054153552
0.0054685785
0.0068075588
0.0052035345
0.0044872125
0.0039726456
0.0038691499
0.0039218208
0.0040195495
0.0040782486
0.0040810032
0.0040669625
0.004087224
0.0041445004
0.0042365678
0.0043025435
0.0043532889
0.0043745888
0.0043766318
0.0043898505
0.0044342664
0.0045294747
0.0046837354
0.0048683432
0.0050507392
0.0051958485
0.0053032179
0.005369328
0.0054060874
0.0063395152
0.0048351254
0.0044180711
0.0041716373
0.0041689448
0.0042124274
0.0042221213
0.0041553258
0.0040567287
0.0039993346
0.0040208847
0.0040950157
0.00421663
0.0043001993
0.0043464988
0.0043742095
0.004383503
0.0044101233
0.0044655706
0.0045612088
0.0046977399
0.0048572189
0.005022245
0.0051677526
0.0052789682
0.005360504
0.0053840495
0.0053913631
0.0058678284
0.0049546375
0.0047581699
0.0046421836
0.0046107274
0.0045361268
0.0043901865
0.0041935533
0.0040355486
0.0039655934
0.0039933882
0.004065754
0.0041890271
0.004290134
0.0043330281
0.0043720036
0.0043861169
0.0044183124
0.0044750602
0.0045721224
0.0047073492
0.0048668568
0.0050381213
0.005196973
0.0053133841
0.0053908316
0.0053819682
0.0053552676
0.0055582479
0.0053454028
0.0052352907
0.0051247039
0.004971321
0.0047590037
0.0045038235
0.0042521236
0.0040719875
0.0039904832
0.0040057003
0.0040736335
0.0041556581
0.004270727
0.0043363877
0.0043517041
0.0043763172
0.004403521
0.0044504447
0.0045416898
0.0046742118
0.004822407
0.0049615465
0.0050691002
0.0051309175
0.0051704377
0.0051232708
0.0052573724
0.0058052298
0.005723896
0.0055854715
0.0053747856
0.0051109109
0.0048255362
0.0045630834
0.0043309588
0.0041577526
0.00406184
0.0040443771
0.004076862
0.0041535777
0.0042252299
0.0042876704
0.0043254464
0.0043333894
0.004356379
0.0043852089
0.0044484351
0.0045325308
0.0046116255
0.0046669394
0.0046850852
0.0047066544
0.0047499061
0.0049314128
0.0050799085
0.0059011918
0.0058213344
0.0056353598
0.0053960816
0.0051186874
0.0048215102
0.0045488107
0.0043186672
0.0041534892
0.0040573866
0.0040246358
0.0040258721
0.0040418514
0.0040679569
0.0041387951
0.0042140588
0.0042623852
0.0042900317
0.0043010103
0.0043245571
0.0043508174
0.0043634136
0.0043667334
0.0043719969
0.0044614414
0.0045827752
0.0048903243
0.0051406544
0.0058928701
0.0057971607
0.0056523371
0.0054284844
0.0051525657
0.0048269886
0.0045111094
0.0042479376
0.0040747702
0.0039876177
0.0039626705
0.0039522024
0.0039392116
0.003961243
0.0040395343
0.0041409995
0.0042183958
0.0042391087
0.004225215
0.0042097628
0.0041920566
0.0041733671
0.004184639
0.0042544511
0.0045133313
0.0048052499
0.0052157072
0.0058929263
0.0058274207
0.0057061252
0.0055034801
0.0052300254
0.0048651719
0.0044913003
0.0041723201
0.0039791729
0.0038978782
0.0038948917
0.003895024
0.0038733799
0.0038959314
0.0039818365
0.0041062821
0.0042116354
0.0042239708
0.0041920944
0.0041526316
0.0041217838
0.0041235246
0.004205817
0.0044369771
0.0049569902
0.0056119815
0.0061026087
0.0058813689
0.0058162485
0.0056366565
0.0053873172
0.0049777831
0.0045170841
0.0041193373
0.0038856789
0.0038043725
0.003839919
0.0038852358
0.0038874334
0.0039170121
0.0040163298
0.0041611897
0.004275163
0.0042823277
0.0042513677
0.0042238384
0.0042350531
0.0043304927
0.0045855776
0.0050791777
0.0057838333
0.0065282607
0.0066649803
0.0060165398
0.0059933127
0.0058586286
0.0056474136
0.0052300627
0.0046542122
0.0041282534
0.003815598
0.0036972463
0.0037702312
0.0038951933
0.003972196
0.0040319209
0.0041461454
0.0043011681
0.0044043934
0.0044171596
0.0044112063
0.0044262114
0.0045046896
0.0046954764
0.0050705109
0.005661642
0.006239855
0.006614204
0.0067355899
0.0061472854
0.0062408997
0.0061918294
0.0060395615
0.0056506855
0.0049825802
0.0042682501
0.0038262335
0.0036028898
0.0036767849
0.0038818992
0.0040784718
0.0042186746
0.0043622805
0.0045079429
0.0045904935
0.0046279649
0.0046753758
0.0047744156
0.0049821862
0.0053313174
0.005828621
0.0063811397
0.0066560495
0.0067589169
0.0063113795
0.0064564376
0.006545849
0.0062215422
0.0055521497
0.0046336055
0.0039846369
0.0035746297
0.0035836783
0.0038207292
0.004130985
0.0043960342
0.0046066247
0.0047385809
0.0048030527
0.0048703974
0.0049701631
0.0051421379
0.005419371
0.0057688058
0.0062735791
0.0064931807
0.0068342047
0.0067005026
0.0069412876
0.0070645376
0.006351119
0.0053484089
0.0044271179
0.0037104231
0.0035651649
0.0037565454
0.0041236299
0.0045043246
0.0048241104
0.0049746194
0.0050260505
0.0051074408
0.0052292205
0.0054129295
0.0056492581
0.0059337604
0.0061279233
0.0063757442
0.0065468001
0.0072022151
0.0074940492
0.0072946105
0.0064147336
0.0053224933
0.0041759155
0.0037235265
0.0037657547
0.0041006557
0.0045402314
0.0049673944
0.0051900284
0.0052285937
0.0052927363
0.0053937553
0.0055331129
0.005718372
0.0058519591
0.0060565319
0.0061588563
0.0077759458
0.0079461534
0.0073281808
0.0066116166
0.0051966296
0.0043018053
0.0040450153
0.0042205364
0.0046093465
0.0050571503
0.0053615573
0.0054106587
0.0054374329
0.005503351
0.0056124006
0.0057593312
0.0058456587
0.0059282678
0.0079452551
0.0080096434
0.0078081272
0.0064223054
0.0051158014
0.0045261481
0.0044389313
0.0046907726
0.0050800087
0.0054292205
0.0055146353
0.0055138272
0.0055339055
0.005610301
0.0057441477
0.0080764745
0.0076763285
0.0065369148
0.0056644239
0.0051369444
0.0050250391
0.0051554941
0.0053761464
0.0055521387
0.0055484306
0.0055614307
0.0055787941
0.0062063118
0.0056731196
0.0053468654
0.0052834813
0.0053335713
0.0058441775
0.0058186751
0.0058006191
0.0057103361
0.0056762198
0.0056175481
0.0054412643
0.0053626804
0.0056274782
0.0059925192
0.0058196096
0.0057546363
0.0056764326
0.0056466969
0.0055876429
0.0055301375
0.0052950544
0.004834554
0.0046603595
0.0051177836
0.0060288723
0.0065154245
0.0064656293
0.0062226504
0.0061668907
0.0059177421
0.0057482092
0.0056265332
0.0055295954
0.0054753426
0.0054166416
0.0053610716
0.0051335092
0.0046633906
0.0044130084
0.0045901119
0.0052773304
0.0058016351
0.006390115
0.0063845527
0.0065052972
0.0062838415
0.0060791972
0.0057449896
0.0055364773
0.0054054079
0.0053202778
0.0052711482
0.0052214445
0.0051837713
0.0050289571
0.0045809095
0.0042349663
0.0041778628
0.0046236853
0.0052794034
0.0059425548
0.0061519696
0.0062700639
0.0068621227
0.0066728472
0.0063450336
0.0058471463
0.0054840244
0.0052633526
0.0051333636
0.0050686346
0.005036689
0.0050105779
0.0049986004
0.0049311265
0.0045927269
0.0042394768
0.0040538372
0.0042506389
0.0047155711
0.0053798743
0.006006328
0.0059511636
0.0059939836
0.007195633
0.0070032083
0.0067097154
0.0058522301
0.0053566236
0.005019871
0.0048466345
0.004783656
0.0047774694
0.0047826915
0.0047963421
0.0048133641
0.004808447
0.0045847934
0.0042856727
0.0040738653
0.0041224031
0.0044133644
0.0049546653
0.0054618181
0.0057777634
0.0057191919
0.0057796688
0.0074347526
0.0067096374
0.0057957646
0.0051046253
0.004675921
0.0044759406
0.0044334503
0.0044638791
0.004510747
0.0045546534
0.0046067332
0.0046476699
0.004672023
0.0045450245
0.0043326951
0.0041504448
0.0041324627
0.0043104601
0.0047060645
0.0051675683
0.0054817276
0.0056090408
0.0056641156
0.0055510192
0.0074694003
0.0066125725
0.0057764505
0.0048241853
0.0042619942
0.0040578312
0.0040447786
0.0041233185
0.0042209927
0.0043044002
0.0043731576
0.0044475846
0.0045010411
0.0045341862
0.0044769567
0.0043523387
0.0042293946
0.0042001252
0.004313956
0.0045963296
0.0049629476
0.0052704598
0.0054218453
0.0055207956
0.0055550687
0.0069309846
0.0057786576
0.0046512912
0.0039329915
0.0036853562
0.0037041432
0.0038308171
0.0039796056
0.0040971668
0.0041804015
0.0042498392
0.004327876
0.0043818349
0.0044194814
0.0044056149
0.0043466362
0.004283788
0.0042760451
0.0043663268
0.0045794261
0.0048604982
0.0051380746
0.0053042144
0.0054223396
0.0054482698
0.0054671239
0.0065994081
0.0055229424
0.0045055868
0.0036975309
0.0034230366
0.0034675775
0.0036418649
0.0038298246
0.003968932
0.004051158
0.004109775
0.0041684452
0.0042473492
0.0043012922
0.0043451471
0.0043527129
0.0043313308
0.0043119382
0.0043320488
0.0044216555
0.0046000764
0.0048241836
0.0050525371
0.0052186654
0.0053392626
0.0053973412
0.0054565199
0.0060203191
0.0045957586
0.0039644247
0.0035343975
0.0035193068
0.0036683916
0.0038468314
0.0039644117
0.004010259
0.004021805
0.0040509047
0.0041043979
0.0041942124
0.0042574369
0.0043118994
0.0043312322
0.0043293087
0.0043393686
0.0043789677
0.0044693135
0.0046217749
0.0048110369
0.0050042864
0.0051608169
0.0052777172
0.0053488501
0.0053894485
0.0058186038
0.0043957095
0.0040276233
0.0038457476
0.0039216835
0.0040408953
0.0041098363
0.0040878
0.00402333
0.003979986
0.0039986316
0.0040612912
0.0041806749
0.0042594629
0.0043128361
0.0043315798
0.0043383337
0.0043636018
0.0044162096
0.0045082166
0.0046415181
0.0047991811
0.0049635602
0.0051097384
0.0052217208
0.0053163512
0.0053519954
0.0053643509
0.0055024839
0.0046483328
0.0044643049
0.0044098481
0.004440269
0.0044146374
0.0043085685
0.004149383
0.0040176311
0.0039528646
0.0039707299
0.0040301137
0.0041570029
0.0042562684
0.0043079475
0.0043379584
0.0043426885
0.0043734038
0.0044297135
0.0045241842
0.0046519078
0.0047997141
0.0049548235
0.0050971893
0.0051984294
0.0052827944
0.0052958917
0.005297892
0.0053792038
0.0051167629
0.005006678
0.0049326963
0.0048204026
0.0046453154
0.0044293875
0.0042119255
0.0040498952
0.0039680474
0.0039735596
0.0040314451
0.0041192343
0.0042546129
0.0042989373
0.0043154133
0.0043304591
0.0043551761
0.0044049456
0.0044941799
0.0046171016
0.0047499441
0.0048668379
0.0049472392
0.0049849939
0.0050440913
0.00505484
0.0051694877
0.0057335165
0.0055617294
0.0053993086
0.0052048773
0.0049703306
0.0047160818
0.0044814282
0.0042706247
0.0041102289
0.0040180339
0.0039993209
0.0040322601
0.00411389
0.0042097113
0.0042504072
0.0042888324
0.0042873385
0.0043061591
0.0043347685
0.0043938168
0.0044663624
0.0045249145
0.0045486383
0.0045297427
0.0045198193
0.0045788173
0.0048132621
0.0050298261
0.0058547244
0.0057369483
0.0055274008
0.0052870643
0.0050132498
0.0047217327
0.0044556949
0.0042341959
0.0040802306
0.0039944719
0.0039710568
0.0039759476
0.0039995708
0.0040273833
0.0040970487
0.00416903
0.0042125209
0.0042347421
0.0042409487
0.0042567219
0.0042655634
0.0042478182
0.0042091109
0.0041701078
0.0042304134
0.0043562836
0.0047503186
0.0049944744
0.0058629941
0.0057491379
0.005592728
0.0053547604
0.0050648043
0.0047272002
0.0044072196
0.0041482676
0.003986086
0.0039121947
0.0038998921
0.0039040666
0.0039054199
0.003934749
0.0040095248
0.0041022828
0.0041646129
0.0041751212
0.0041526294
0.0041234184
0.0040782651
0.0040153022
0.0039716488
0.003988778
0.0042043298
0.0044533413
0.0049301503
0.0058674203
0.0057901161
0.0056664547
0.0054436655
0.0051401036
0.0047460218
0.004362649
0.004047335
0.0038662763
0.0038036347
0.0038208382
0.0038468757
0.0038496733
0.0038828621
0.0039623983
0.0040726025
0.0041517224
0.0041460811
0.0041011329
0.0040387297
0.0039670149
0.0039088224
0.0039231828
0.004084663
0.0045194575
0.005053905
0.0055469129
0.0058390225
0.0057780406
0.0055759608
0.0052837173
0.0048183787
0.0043387463
0.0039482459
0.0037302992
0.0036792685
0.0037451411
0.0038250101
0.0038612504
0.0039099847
0.004001771
0.0041280299
0.0042087466
0.0041932164
0.0041443371
0.0040846026
0.0040436537
0.004069425
0.0042440079
0.0046606347
0.0053088515
0.0060265778
0.0061359944
0.0059852466
0.0059497177
0.0057876706
0.0055243668
0.0050217542
0.0044079859
0.0038890721
0.0035912333
0.003518063
0.0036379118
0.0038064646
0.0039240079
0.0040124249
0.0041249903
0.0042607732
0.0043316535
0.0043240443
0.0042975912
0.0042761735
0.0043006639
0.0044309523
0.0047532447
0.0053080844
0.0058215357
0.0062711761
0.006305415
0.006124475
0.0061942358
0.006114886
0.0058915253
0.0053960221
0.0046553079
0.0039447847
0.0035077087
0.0033466673
0.0034869334
0.0037514588
0.0039957459
0.0041698668
0.0043207855
0.0044561078
0.0045167239
0.0045405458
0.0045662071
0.0046228706
0.0047712207
0.0050530663
0.005500161
0.0060210625
0.0063689031
0.0065622515
0.006233369
0.0063284932
0.0063904757
0.0059071475
0.0051388245
0.0042120606
0.0035553515
0.003219801
0.0033133886
0.0036320323
0.0040051282
0.0043116179
0.0045384036
0.0046724664
0.0047342891
0.0047981152
0.0048812049
0.0050220458
0.0052635254
0.0055755677
0.0060717145
0.0062081021
0.0066353553
0.0065805468
0.0067158779
0.0067566458
0.0058699339
0.0048374177
0.0038766033
0.0032410384
0.0032001612
0.0034922154
0.0039430366
0.0043823145
0.0047296915
0.0048924884
0.0049644954
0.0050558549
0.0051747661
0.0053516214
0.0055759836
0.0058525376
0.006002447
0.0062394409
0.0063521668
0.0069993262
0.0070604612
0.0067744675
0.005829532
0.0046587804
0.0035837798
0.0032639389
0.003423477
0.0038575547
0.0043734269
0.0048490086
0.005088897
0.0051675846
0.005255163
0.0053628214
0.0055015581
0.0056871158
0.0057835452
0.005993763
0.0060573459
0.0074423946
0.0074503965
0.0066587011
0.0058219666
0.0044560503
0.0037504512
0.0036358164
0.003914957
0.0043944617
0.0049168716
0.00524905
0.0053489398
0.0054108463
0.0054844716
0.005594111
0.0057341897
0.0058172177
0.005866046
0.007459722
0.0074819543
0.0069599889
0.0055091942
0.0044682494
0.0040594511
0.0041015886
0.004458399
0.0049450288
0.0053359136
0.0054567696
0.0054871941
0.0055106208
0.0055921023
0.0057349688
0.0072148628
0.0067858678
0.0058096924
0.0051212515
0.0047541097
0.0048094127
0.005037333
0.0052913063
0.0054868548
0.0055255562
0.0055441685
0.0055527639
0.0054755828
0.0052000729
0.005107993
0.0051998881
0.0053211659
0.0057938285
0.0057664533
0.005758435
0.0056747709
0.0056496547
0.0056212078
0.0053423925
0.0051212504
0.0050704725
0.0059400105
0.0057727967
0.0057162392
0.0056374264
0.0056055034
0.005517346
0.0054048012
0.0051240154
0.0046158143
0.0042998569
0.0044957774
0.0053167246
0.0059905453
0.0059581964
0.0060894521
0.0060983118
0.0058522448
0.0056945823
0.005585949
0.0054877592
0.0054217041
0.0053217643
0.0051882466
0.0049043271
0.0044160144
0.0040393485
0.0040343648
0.004598772
0.0051843997
0.0059085446
0.0059450473
0.00628156
0.0060947038
0.0059530086
0.0056278953
0.0054429968
0.0053334975
0.0052522773
0.0051971129
0.005106616
0.0049926114
0.0047698812
0.0043091479
0.0038711897
0.0036904281
0.0040349233
0.0046949995
0.0054440713
0.0057427189
0.0060330964
0.0064917823
0.0063496711
0.0061106064
0.0056280754
0.0053021164
0.0051193846
0.005018392
0.0049755746
0.004945916
0.0048862348
0.0048129084
0.0046858705
0.0043271386
0.0039282848
0.0036447071
0.0037509967
0.0041948974
0.0049150299
0.0057210236
0.005734025
0.0058597016
0.0066057783
0.0064219416
0.0062911008
0.0054212828
0.0050071253
0.0047313617
0.0046268196
0.0046238986
0.0046583489
0.0046742779
0.0046674791
0.0046449927
0.0045947874
0.0043532605
0.004029395
0.0037422722
0.0037187841
0.0039815259
0.004550523
0.0051691583
0.0056264845
0.0055973234
0.0057062358
0.0067358145
0.0060051333
0.0051402608
0.0045374879
0.004214185
0.0041237594
0.0041781925
0.0042823937
0.0043755753
0.0044351231
0.0044785639
0.0044981745
0.0044920008
0.0043534035
0.0041260956
0.0038943545
0.003825226
0.003976384
0.0043870639
0.0049272666
0.0053405137
0.005535252
0.0056238865
0.0054978707
0.0066266175
0.0056955881
0.0049265394
0.0040670229
0.0036368703
0.0035653671
0.00367798
0.0038594712
0.0040314756
0.004160024
0.0042463775
0.004320753
0.0043642084
0.0043801077
0.004314257
0.0041822619
0.0040319633
0.0039721143
0.0040680292
0.004359234
0.0047711287
0.0051595991
0.0053536938
0.0054829189
0.0055243015
0.0058434441
0.0047326843
0.0037613382
0.0031840937
0.003081689
0.0032393084
0.0034885624
0.0037316379
0.0039134395
0.0040343945
0.004120785
0.0042040843
0.0042535192
0.0042840867
0.0042639611
0.0042008368
0.0041270375
0.0041062966
0.0041893794
0.0044117842
0.0047217833
0.0050521224
0.0052554036
0.005396297
0.0054214228
0.0054418422
0.0054754002
0.004459778
0.003539702
0.0029050474
0.0027715839
0.0029510792
0.0032506594
0.0035381864
0.0037509583
0.0038809271
0.0039687871
0.0040413388
0.0041267084
0.0041775457
0.0042202316
0.0042228848
0.0041993159
0.0041769508
0.0041953905
0.0042875429
0.0044791299
0.0047252319
0.00498692
0.0051787508
0.0053195886
0.0053766762
0.0054384913
0.0050952821
0.0037996068
0.0032438561
0.0029321781
0.0030180804
0.003272025
0.0035409226
0.0037279485
0.0038250993
0.0038721714
0.0039238951
0.0039843948
0.0040779086
0.0041373801
0.0041940771
0.004208681
0.0042053326
0.0042149786
0.0042558577
0.0043523012
0.004518861
0.0047283391
0.0049457806
0.0051186842
0.0052501744
0.0053245942
0.0053690795
0.0051005601
0.0038290618
0.0034998257
0.0033905068
0.0035451355
0.0037383961
0.0038704035
0.0038950682
0.0038739947
0.0038610176
0.0038940537
0.0039544898
0.0040747858
0.0041445311
0.0042048593
0.0042122197
0.0042179412
0.0042422518
0.0042967642
0.004393935
0.0045366635
0.0047064681
0.0048838182
0.0050401556
0.0051612215
0.0052721184
0.0053124898
0.0053270301
0.0050418672
0.0042731168
0.004079774
0.0040559429
0.0041310369
0.0041574045
0.0040970436
0.0039849292
0.0038951037
0.0038510073
0.0038757119
0.0039299392
0.0040739467
0.0041643505
0.0042237569
0.0042288866
0.0042243338
0.0042526722
0.0043095147
0.0044051021
0.0045332561
0.0046781624
0.0048245728
0.0049593444
0.0050609656
0.0051684695
0.0052207285
0.0052451469
0.0051207267
0.0048379192
0.0047038658
0.0046367021
0.0045561108
0.0044191429
0.0042414056
0.0040582783
0.0039246077
0.003856942
0.0038662264
0.0039219524
0.0040336161
0.0041750332
0.0042126477
0.0042007225
0.0042075871
0.0042280941
0.0042778888
0.0043636542
0.0044781769
0.0045971064
0.0046948041
0.0047598546
0.0048029419
0.0049194039
0.0050310413
0.0051826136
0.0055962994
0.0053616341
0.0051710764
0.0049777392
0.0047647263
0.004534517
0.0043164028
0.004116995
0.0039696202
0.0038873039
0.0038753455
0.0039147317
0.0040185996
0.0041343392
0.0041585209
0.0041738594
0.0041617368
0.0041747003
0.0041995535
0.00425137
0.0043111836
0.0043488927
0.0043434822
0.0042996473
0.0042926097
0.0043917356
0.0047193754
0.0049749719
0.0058437564
0.0056392913
0.0053998801
0.0051469404
0.0048672663
0.0045679401
0.0042975371
0.0040744897
0.0039260333
0.0038485291
0.003834521
0.0038472134
0.0038862413
0.0039238386
0.003991326
0.0040489025
0.0040830655
0.0040976205
0.0040970286
0.0041012634
0.0040901662
0.0040410068
0.0039648645
0.0038919561
0.0039352669
0.0040907582
0.0045654499
0.0048033628
0.0058226005
0.0056880737
0.0055209535
0.0052595453
0.0049484337
0.0045825846
0.0042423286
0.0039721132
0.0038128485
0.0037488157
0.0037511595
0.0037710759
0.0037937356
0.0038412663
0.0039136517
0.0039868367
0.0040321526
0.0040315776
0.003997864
0.0039486331
0.0038692622
0.0037569347
0.0036573191
0.0036235055
0.0037872361
0.0040041026
0.0046006117
0.0058270932
0.0057455384
0.0056172339
0.0053586987
0.0050165202