/*--------------------------------*- C++ -*----------------------------------*\
| =========                 |                                                 |
| \\      /  F ield         | OpenFOAM: The Open Source CFD Toolbox           |
|  \\    /   O peration     | Version:  2406                                  |
|   \\  /    A nd           | Website:  www.openfoam.com                      |
|    \\/     M anipulation  |                                                 |
\*---------------------------------------------------------------------------*/
FoamFile
{
    version     2.0;
    format      ascii;
    arch        "LSB;label=32;scalar=64";
    class       volScalarField;
    location    "650";
    object      epsilon;
}
// * * * * * * * * * * * * * * * * * * * * * * * * * * * * * * * * * * * * * //

dimensions      [0 2 -3 0 0 0 0];

internalField   nonuniform List<scalar> 
150387
(
0.0034618054
0.0018716143
0.0016730213
0.0015315708
0.0014132947
0.0014650366
0.0018039091
0.0025781143
0.0063691429
0.001878678
0.0017829827
0.0017835561
0.0018082181
0.0018354544
0.001823542
0.001751573
0.0016178461
0.0014500271
0.001254462
0.0011074121
0.0018560477
0.001433086
0.0014891481
0.001540106
0.0015953447
0.0016844995
0.001818822
0.0019700667
0.0020848531
0.0021186926
0.0020520366
0.0018931607
0.0016725947
0.0014071134
0.0011394098
0.00094776777
0.0014951168
0.003585201
0.00087802186
0.00099511232
0.0011302306
0.0012290955
0.0013192293
0.0014460427
0.0016280795
0.0018500401
0.0020714673
0.0022320668
0.0022848982
0.0022236553
0.0020573519
0.001796074
0.0014806088
0.0011430082
0.00085157812
0.0011242666
0.0039660727
0.00073286114
0.00083602104
0.0010263304
0.001228049
0.0013829685
0.0014476303
0.0014665683
0.0014996453
0.0016005371
0.0018021241
0.002057657
0.0022637897
0.0023467167
0.0022788426
0.0020828191
0.0017947148
0.0014407339
0.0010646039
0.00079798411
0.00067849299
0.00076142503
0.00085294705
0.0010379262
0.001239355
0.0014663559
0.0017417206
0.0019810962
0.0020194962
0.001893255
0.0017569167
0.0017204186
0.0018395705
0.0020729922
0.0022831729
0.0023505768
0.0022584847
0.0020326078
0.0017011169
0.0013043045
0.0009309644
0.00065038799
0.00090509695
0.00084386682
0.00092056702
0.0011514274
0.0013896915
0.0016133625
0.001798235
0.001942261
0.0020882441
0.0023308547
0.0025533302
0.0024787734
0.0022095682
0.002018021
0.0020397045
0.0022065941
0.0023571864
0.0023695343
0.0022156324
0.0019185182
0.0015151062
0.0011019939
0.00075953744
0.00062593619
0.0013168682
0.0033098131
0.00098704216
0.0012560785
0.0015682275
0.0018556929
0.0021033042
0.0023000811
0.0024468046
0.0025516015
0.0026171354
0.0026889636
0.0028246311
0.0028958241
0.002631477
0.0023792815
0.0023175397
0.0024011154
0.0024602973
0.0023567509
0.0020954184
0.0016939708
0.0012528705
0.00089277634
0.00065754597
0.00067908854
0.0010372863
0.0012519419
0.0016400669
0.0019843995
0.0022742911
0.0025049633
0.0026737628
0.0027852667
0.0028712346
0.0029588179
0.0030749187
0.00325422
0.0033373667
0.0032256993
0.0029439198
0.002646673
0.0025422311
0.0025573263
0.0024733694
0.0022315788
0.0018330369
0.0013790525
0.0010167256
0.00074273267
0.00071087402
0.0013814686
0.00117735
0.0015816759
0.0020245957
0.0023652596
0.0026115936
0.002776943
0.0028655246
0.0029251996
0.0029885634
0.0030807789
0.0031791994
0.0032552215
0.0033835878
0.0035525572
0.0034188499
0.0030692709
0.0027703086
0.0026754517
0.0025842713
0.0023338445
0.0019315956
0.0014828935
0.0011280267
0.00083861029
0.00080448194
0.0011324603
0.0016745454
0.0013873207
0.0019108967
0.0023753043
0.0026723952
0.0028189931
0.0028641417
0.0028740849
0.002911157
0.0030367679
0.0032479167
0.0033863837
0.0032462855
0.0028323044
0.0027710362
0.0031157174
0.0032072092
0.0029799623
0.0027953536
0.0026887211
0.0024184684
0.0019979372
0.0015681441
0.0012085782
0.00092636285
0.00088737742
0.0011076439
0.0015227758
0.0016122103
0.0022078998
0.0026575855
0.0028655646
0.0028615735
0.0027924545
0.0027740556
0.0029078569
0.0032491667
0.003640925
0.0035199248
0.0020643877
0.00087298404
0.00053990549
0.0010403624
0.0024245524
0.00293802
0.0028767591
0.0027847621
0.002495761
0.001988619
0.0016470184
0.0012086945
0.00097395304
0.00094457893
0.0010888737
0.0031935831
0.0013793461
0.0018192033
0.0024367973
0.0028272347
0.0029000104
0.0027571371
0.0026272111
0.0026800841
0.0030687922
0.0036998651
0.0039127245
0.0024680883
0.00037425875
0.00020088432
0.00014580554
0.00015256447
0.0010501183
0.0025451855
0.0028932605
0.002894716
0.0024287306
0.0019565963
0.0015856596
0.0011407408
0.00098911808
0.00099665843
0.0011064132
0.0017417261
0.0014876575
0.00199414
0.0025802696
0.002862884
0.0027605113
0.0025248708
0.0024200505
0.0027051474
0.0034463772
0.0040467721
0.0033207544
0.0014191067
0.00016888657
0.00058647097
0.00025333673
0.00025914868
0.000455654
0.0021521476
0.0029473346
0.0028727487
0.0022260179
0.0018565667
0.0013742359
0.0010880016
0.0010241461
0.0010613595
0.0011321503
0.0016188819
0.0016135896
0.0020975671
0.0026255896
0.0027760472
0.0025046523
0.0022669056
0.0022928091
0.0029400544
0.0038071773
0.0036213694
0.002920914
0.0015052122
0.0002187131
0.0002426769
0.00020988697
0.00016723641
0.00043287278
0.0023088171
0.0030653801
0.0025322873
0.0020294424
0.0015929972
0.0012090295
0.0011039646
0.0011081663
0.0011375163
0.0011265933
0.0016452089
0.0017604396
0.0021342875
0.0025593707
0.0025473329
0.002201387
0.0020596611
0.0023286553
0.0033793813
0.0036101061
0.0032071199
0.0028166406
0.002263812
0.00073310382
0.00015596029
0.00015144873
0.00033818566
0.001368582
0.0027794954
0.0027158549
0.0021374404
0.0017352566
0.0013788586
0.0012052262
0.0012078849
0.0012233766
0.0011844764
0.0010943211
0.0038026505
0.0021215127
0.0021191853
0.0024294136
0.0022431635
0.0019390164
0.0019427455
0.0024887509
0.003579059
0.0029706157
0.0028692337
0.0027183489
0.0028023888
0.0023041539
0.0012801809
0.0011128912
0.0016181616
0.0023934226
0.00259044
0.0022475977
0.001863547
0.0015580438
0.0013719914
0.0013452148
0.0013528999
0.0013073962
0.0011750385
0.0010616834
0.0025498058
0.0039974997
0.0021001413
0.0022888814
0.0019673763
0.0017517937
0.0019014526
0.0026841743
0.0031273815
0.0026531178
0.0026380582
0.002518835
0.0027215264
0.0029737485
0.002785123
0.0024283297
0.0024154407
0.0024372067
0.0022681496
0.0020063031
0.0017782984
0.0016202241
0.0015287981
0.00150427
0.0014447919
0.0013086471
0.0010950573
0.00095174269
0.0021048299
0.0021721983
0.0017865386
0.001610534
0.001881403
0.0026987816
0.0024985742
0.0024998772
0.0024563541
0.0022898981
0.0023873217
0.0027241835
0.0029389281
0.0029120929
0.0026543233
0.0024234635
0.0022396104
0.0020692882
0.0019136933
0.0017757441
0.0016623817
0.0015714142
0.0014284328
0.0012144411
0.00097316741
0.0011351917
0.0022972893
0.0020943863
0.0016952515
0.0014859521
0.0018162723
0.0023709265
0.0021726466
0.0023440649
0.0023041786
0.0021090961
0.0020365472
0.0022844241
0.0026183157
0.002664757
0.0026158223
0.0024904049
0.0023022272
0.0021404791
0.0019858693
0.0018296843
0.001671973
0.0015103157
0.0013011086
0.0010508563
0.00088429232
0.0012729393
0.0020402887
0.0016376741
0.0013582464
0.0016452909
0.0019234966
0.0019540701
0.0021625165
0.0021676891
0.0019938669
0.0017947104
0.0018246278
0.0021333637
0.0024672428
0.0025106937
0.0023546096
0.0022052231
0.0020516977
0.0018929487
0.0017173475
0.001528957
0.0013213144
0.0010817842
0.00086266759
0.00089299791
0.0022061371
0.001544448
0.0012056684
0.0013761357
0.0015334076
0.001725353
0.0019550384
0.002025922
0.0019242016
0.0017097564
0.0015434899
0.0016031076
0.00187791
0.0021778521
0.0022452079
0.0020780603
0.0018587836
0.0016594989
0.0014671123
0.0012682729
0.0010523847
0.00084105419
0.00072248114
0.0022959833
0.0015457665
0.0010236261
0.0010687209
0.0012083104
0.0014645909
0.0017194587
0.001863071
0.0018708168
0.0017451559
0.0015378088
0.0013801042
0.0013837843
0.0015398081
0.0017133758
0.0017368608
0.0015874955
0.0013870759
0.0011844352
0.00098864732
0.00080837213
0.0007543468
0.0013677395
0.00092055043
0.00079907947
0.00093699105
0.0011857842
0.0014616446
0.0016716635
0.0017671652
0.0017362896
0.0015911578
0.0014020643
0.001256373
0.0011985645
0.001210325
0.0012403713
0.001201003
0.0010713818
0.00089901267
0.0007310537
0.00063590276
0.00074731589
0.00089723665
0.0007445458
0.00091637795
0.0011638869
0.0014008655
0.0015657764
0.0016261212
0.0015762163
0.0014483443
0.001306429
0.0011941875
0.0011205118
0.0010595642
0.00097623634
0.00086963058
0.00076185981
0.00075075031
0.0011891102
0.0013801918
0.00080259897
0.00088830009
0.0010769647
0.0012615081
0.0013910521
0.0014408239
0.0014115904
0.0013300611
0.001233216
0.0011483082
0.0010802919
0.001030399
0.00097953509
0.0009622365
0.0027991953
0.002037159
0.00099857311
0.0010074854
0.0011413899
0.0012222315
0.0012815395
0.0012951665
0.0012804708
0.0012822547
0.0013114094
0.0013359925
0.0022886083
0.0021540436
0.0016723473
0.0015718502
0.0016029905
0.0019141501
0.0036248846
0.0084060651
0.0035510153
0.0022848343
0.001990929
0.0017921442
0.0016531522
0.0017065731
0.0015329324
0.0024029357
0.0030481105
0.0021830746
0.0020577559
0.0020287181
0.0020336284
0.0020360924
0.0019906048
0.001874493
0.0016766683
0.0014587242
0.0013565482
0.001168633
0.0021749168
0.0030692733
0.0036965063
0.0016534098
0.0014859704
0.0014558956
0.0014944093
0.001583324
0.0016957103
0.0018133215
0.0019063724
0.0019379742
0.0018739398
0.0017177379
0.0014785344
0.0012333986
0.0010439875
0.0011928735
0.00097945921
0.0015237436
0.0010479806
0.00097539849
0.00094368609
0.00093394009
0.00093640552
0.00095185923
0.0010133754
0.0011340397
0.0013329276
0.0015595209
0.0017187264
0.001756857
0.0016490906
0.0014449441
0.0011892115
0.0010016751
0.00088756756
0.0010969358
0.0012084375
0.00077809712
0.00077930316
0.00082357994
0.00087113378
0.00092517182
0.00097643275
0.001010963
0.0010120573
0.0010000547
0.0010147331
0.0011129181
0.0013183932
0.0015227462
0.0016144747
0.0015558082
0.0013688713
0.0011167617
0.00088595519
0.00076855619
0.0008444798
0.0019198245
0.00089122071
0.00089186767
0.00097956914
0.0010814853
0.0011840174
0.0012840394
0.0013815275
0.0014808509
0.0015454225
0.0014996592
0.0013545482
0.0011935264
0.0011743913
0.0012633215
0.0014246942
0.0015169231
0.0014600295
0.0012642464
0.0010074746
0.00078017787
0.00065319805
0.00078283908
0.0011611623
0.0010240345
0.0011254165
0.0012667739
0.0014000094
0.0015207277
0.0016277578
0.001713931
0.001780933
0.0018524614
0.0019150355
0.0018593853
0.0016470967
0.0014051608
0.0012581077
0.0012929407
0.001402399
0.0014600565
0.0013626742
0.001135905
0.00087216168
0.00064699174
0.00052487175
0.0009814142
0.0012705918
0.0010774846
0.0012161934
0.0014059175
0.0015585523
0.0016677266
0.0017389054
0.0017927952
0.0018458357
0.0018870259
0.0018899061
0.0018707435
0.0018604132
0.0018135015
0.0016549683
0.0014332325
0.0013146831
0.0013454366
0.0014300789
0.0014156894
0.0012386864
0.0009713438
0.00069303643
0.00053615126
0.00061876168
0.0011858086
0.0012700357
0.001503778
0.0016900888
0.0017897505
0.0018087762
0.0017762963
0.0017615519
0.0017768614
0.0017826119
0.0017342343
0.0016558367
0.0016102722
0.0015982041
0.0015856719
0.0014996734
0.0013773298
0.0013525983
0.0014266446
0.0014573472
0.001320007
0.0010554004
0.00074324843
0.00056037771
0.00070979325
0.0015769675
0.0042321834
0.0013911957
0.0015432999
0.0017875112
0.0019125194
0.0018984482
0.0017881473
0.0016997775
0.0017132224
0.0017657989
0.001712817
0.0015147381
0.0012675167
0.001109436
0.0011331361
0.0012460983
0.0013319456
0.0013399068
0.00135608
0.0014436122
0.001504204
0.0013873712
0.0011177927
0.00077828984
0.00058023337
0.00069450563
0.0010497523
0.0018398626
0.0015182201
0.0018365867
0.0020332315
0.0020279506
0.0018517976
0.0016677597
0.0016678522
0.0018369792
0.0018970387
0.0016592631
0.001206137
0.00075993968
0.00049813275
0.00046133451
0.00068187324
0.00097450758
0.0011690446
0.0013031548
0.0014553809
0.0015504877
0.0014359399
0.0011576814
0.00079064836
0.00059121572
0.00070470836
0.0010122068
0.0032000984
0.0017594928
0.0020903161
0.0021812055
0.0019976914
0.0016748052
0.0015800102
0.0018430783
0.0021340243
0.0019763875
0.0013846772
0.00067187529
0.0002520007
0.00014558232
0.00011812972
0.0002131654
0.00056042828
0.00092635435
0.001201307
0.0014479274
0.0015841783
0.0014628285
0.0011694157
0.00076666491
0.00059576513
0.00073378913
0.0009980351
0.0058296072
0.0018355386
0.0020159216
0.0022929694
0.0022188606
0.0018292297
0.0014891891
0.0016580867
0.0022031907
0.0023583559
0.0017822438
0.00092045366
0.00026460317
0.00014181184
0.00016361558
0.00014332986
7.705669e-05
0.00028540797
0.00071240907
0.0011031703
0.0014492636
0.0015940787
0.0014508766
0.0011088694
0.00070833598
0.0006100561
0.00080738057
0.0010306695
0.0028131977
0.0019850847
0.0022261365
0.0024191143
0.0021393484
0.0015831491
0.0013932241
0.0019169352
0.0025394964
0.0022751118
0.0014232586
0.00064043271
0.00016985023
0.00010179337
0.00064815888
0.00023444304
6.0319476e-05
0.00016530841
0.00060692825
0.0010911768
0.0014652002
0.0015476788
0.0013610749
0.00096883829
0.00066189414
0.0006547825
0.00090212515
0.0012936803
0.002590934
0.0019374137
0.0024062631
0.0024783317
0.0019701575
0.0013532309
0.0014028139
0.0021870184
0.0026030785
0.0019623173
0.0012438855
0.00066408762
0.00024086465
9.5864867e-05
0.00018272759
9.2204863e-05
5.4976307e-05
0.000206928
0.00069139869
0.0011675247
0.0014323101
0.0014314092
0.0011717159
0.00081255001
0.00065529934
0.0007525311
0.00099904179
0.0010731331
0.002530037
0.0021996698
0.0024876515
0.0024623254
0.0017695086
0.0011945046
0.001467623
0.0022927822
0.0023559996
0.0017437808
0.001261038
0.00084893542
0.00045800132
0.00015482744
7.5310821e-05
7.6874522e-05
0.00018079974
0.00046115957
0.00087793482
0.0011904858
0.0013106363
0.0012130322
0.00093215514
0.00071333879
0.00070301091
0.00088737659
0.0010397576
0.00099169088
0.0031238273
0.0029039797
0.0025516965
0.0024011496
0.0016021609
0.001105506
0.001486617
0.0021484087
0.0020562359
0.0016680281
0.0013345387
0.0010998423
0.00083615475
0.00049552015
0.00031093011
0.00034425748
0.0004981421
0.00073131519
0.0009771196
0.00112389
0.0011216539
0.00096852272
0.00078395145
0.00073446607
0.00083902328
0.0009906892
0.00102261
0.0010105776
0.0044424847
0.0026307021
0.0023158807
0.0014990385
0.0010584144
0.0014035274
0.0018855022
0.0018338708
0.0015809192
0.0013630351
0.001311284
0.0012177371
0.00098849649
0.00073867203
0.00066443214
0.00074233921
0.00086734674
0.00097977297
0.0010141229
0.00094882332
0.00084369655
0.00079516131
0.0008433728
0.00095585267
0.00099492455
0.001033884
0.0010296351
0.0027752196
0.0022538915
0.0014584945
0.0010242959
0.0012592088
0.0016518146
0.0016678794
0.001460591
0.0012966522
0.001361417
0.0014744504
0.0014489652
0.0012729421
0.0011085328
0.0010414344
0.0010400805
0.0010365199
0.00099411996
0.00092685134
0.00088678263
0.00089677783
0.00096598341
0.00099014672
0.0009387651
0.00095126783
0.0010866451
0.0027455212
0.0022741441
0.001477198
0.00099174673
0.0011149753
0.0014532105
0.0015267902
0.0013621374
0.0011867104
0.0012244179
0.0014493344
0.0016474396
0.0016596301
0.0015329282
0.0014000865
0.0012962249
0.0011997357
0.0011054323
0.0010330795
0.0010000507
0.0010031003
0.00098960318
0.00091908796
0.00085675472
0.00097574337
0.0030889102
0.0082051701
0.0025057312
0.0015913259
0.00097196949
0.00098801254
0.0012812615
0.0014098202
0.0013179347
0.0011359572
0.0010510094
0.001175689
0.0014429925
0.0016572821
0.0017016973
0.0016011578
0.0014642757
0.0013372409
0.0012193486
0.0011228707
0.0010506311
0.00098405764
0.00089941988
0.00084013553
0.0010132197
0.0014789382
0.0030728926
0.0018915384
0.00097534252
0.00088302308
0.0011274325
0.0013019972
0.0013183868
0.0011733222
0.0010063078
0.00094326876
0.0010398021
0.001236739
0.001415099
0.001456771
0.0013850438
0.0012705725
0.0011594157
0.0010517819
0.00095139012
0.00085354311
0.00076952547
0.00078255287
0.00071744167
0.0026692746
0.0010463402
0.00080734551
0.00099106099
0.0011760462
0.0012963123
0.0012700958
0.0011203498
0.00093787619
0.00085709686
0.00085789796
0.00094375525
0.0010302817
0.0010523095
0.0010055796
0.00093194015
0.00084985705
0.00076839245
0.00070289921
0.00070631921
0.0007253635
0.0013700495
0.0012342138
0.00078857446
0.00089894392
0.0010277089
0.001203639
0.0013009105
0.0012897735
0.0011501955
0.00096150617
0.00080765701
0.0007354044
0.00072086431
0.00071891186
0.0007149515
0.00069009244
0.00065513681
0.00062621502
0.00063524343
0.00064752046
0.0010650636
0.0010091699
0.00097708266
0.00091756488
0.0010519897
0.0012069964
0.0013252006
0.0013354729
0.0012512138
0.001105761
0.00095888068
0.0008533637
0.00079232747
0.00075496675
0.00073084328
0.00071956136
0.00072943806
0.00068970493
0.0011529535
0.0011721957
0.00085031872
0.00099285836
0.0011467893
0.0012035302
0.0013155223
0.0013736853
0.0013445449
0.0012603135
0.0011651766
0.0011037326
0.0010781026
0.0011133299
0.00090871291
0.0011374051
0.0014088951
0.0019540474
0.001088474
0.0011629289
0.0012285518
0.0013169341
0.0013671649
0.0013747954
0.0014091622
0.0014719046
0.0019247689
0.0044463675
0.0052553285
0.0026273369
0.0026234259
0.0028147469
0.0038483487
0.011267563
0.0049131777
0.0031151185
0.0025936009
0.0022729809
0.0020538509
0.0020045041
0.0019962988
0.0028260094
0.0047267082
0.0032083342
0.0029585044
0.002841251
0.0027566771
0.0026696858
0.0025347945
0.0023325673
0.0020518176
0.0017711668
0.0016310188
0.0013963479
0.0024107615
0.0032641804
0.0073217438
0.0028005729
0.0024613837
0.0023772058
0.0023653106
0.0023814813
0.0024153591
0.0024462552
0.0024543819
0.0024088716
0.0022745625
0.0020563166
0.0017627107
0.0014708627
0.0012530241
0.0013928796
0.0012723927
0.0034164938
0.0020668993
0.0017313329
0.0015575791
0.0014481194
0.0013782512
0.0013502634
0.0013840941
0.0015067781
0.0016991683
0.0019044398
0.0020444459
0.0020598887
0.0019212488
0.0016820799
0.001396244
0.0011851137
0.0010592527
0.0013544196
0.0017394519
0.0011931172
0.0011042329
0.0010759727
0.0010519805
0.0010301856
0.0010162001
0.0010134806
0.0010083527
0.0010171004
0.0010789689
0.0012240343
0.0014511416
0.0016915513
0.0018103116
0.0017559339
0.0015573371
0.0012897705
0.0010387302
0.00090797659
0.0011036448
0.0023969197
0.0010796163
0.0010717297
0.0011429718
0.0012028371
0.0012419018
0.0012721353
0.001300398
0.0013285526
0.0013580439
0.0013440765
0.0012572858
0.00116013
0.0011648897
0.0012807276
0.0014902787
0.0016275544
0.0015950577
0.0014064777
0.0011457149
0.00090029036
0.00076613989
0.00094583761
0.0013690814
0.0012398469
0.0013320019
0.0014352389
0.0015059821
0.001551123
0.0015828217
0.0016105078
0.0016356739
0.0016565112
0.0016862339
0.0016679608
0.0015280634
0.0013388701
0.0011982251
0.0012528562
0.0014061692
0.0015082657
0.0014447001
0.0012389032
0.00097447889
0.00073601066
0.00072972447
0.0015510401
0.0013890099
0.0013168529
0.0014456229
0.0016091926
0.0017149237
0.0017550921
0.0017439486
0.0017137497
0.0016978711
0.0017002591
0.0016949112
0.0016778591
0.0016707843
0.0016528908
0.0015507271
0.0013514029
0.0012068353
0.0012561579
0.0013817932
0.0014169854
0.0012849046
0.001040671
0.00076999932
0.00071542363
0.00099749026
0.0014323004
0.0015150462
0.0017344893
0.0018921058
0.0019354501
0.0018705281
0.0017522401
0.0016636324
0.0016360536
0.0016179108
0.001547549
0.0014424484
0.0013754355
0.0013881995
0.0014321707
0.0013916253
0.0012603839
0.0011976029
0.0012819033
0.0013685487
0.0012984845
0.0010793013
0.00080128276
0.00072999111
0.0011418337
0.0026638828
0.0050168598
0.0016699966
0.0018004931
0.0020296872
0.0021138383
0.0020183924
0.0018028793
0.0016341448
0.0016122173
0.001646465
0.001559614
0.0013186217
0.0010426452
0.00086098605
0.00085027546
0.0009902348
0.0011513821
0.0011967854
0.0011820725
0.0012404306
0.001340125
0.0013034941
0.0010960269
0.00081096961
0.00074497976
0.0010841347
0.0017089557
0.0023292817
0.0018102877
0.0021250146
0.0022955711
0.0022187438
0.0019242744
0.0016224744
0.0015771366
0.0017315848
0.0017261655
0.0013918869
0.00090753186
0.00051852302
0.00032800739
0.00029367776
0.00044989928
0.00073618571
0.00097653633
0.0011028848
0.0012169593
0.0013384124
0.0013104805
0.0010958891
0.00079982819
0.00075883124
0.0010866415
0.0015676921
0.0037337094
0.0020931296
0.0024200749
0.0024623907
0.0021615876
0.001690779
0.0014984678
0.0017213858
0.0019191831
0.0016131958
0.00096848791
0.00039771036
0.00015725097
0.00011563518
9.7529902e-05
0.00014507162
0.00038173736
0.00071045147
0.00097290268
0.0011869748
0.0013506551
0.001316554
0.0010809319
0.00077550295
0.00077381416
0.0011216692
0.0014629883
0.0077664232
0.0022563986
0.0024083036
0.0026765865
0.0025207781
0.0019580876
0.0014443502
0.0015269016
0.0019521694
0.001899826
0.0012607611
0.00054195269
0.00016221276
0.00010771713
0.00014534899
0.00012466434
6.7385554e-05
0.00019123161
0.00051130849
0.00085483113
0.0011694124
0.0013736068
0.0013073633
0.0010288662
0.00073901023
0.00082026224
0.0012205455
0.0014519098
0.0037447421
0.0024583514
0.0026926638
0.0028706971
0.0024715577
0.0016790366
0.0013144205
0.0016866142
0.0020449062
0.0016426324
0.00096430351
0.00039205053
0.00011968572
9.4152495e-05
0.00068589251
0.00025852893
5.4326881e-05
0.00011615445
0.00041658486
0.00081552417
0.0012017707
0.0013848283
0.0012481734
0.00092498116
0.00071360744
0.00092313081
0.0013203203
0.0016602439
0.0033502423
0.0024749476
0.002960067
0.0030170641
0.002352932
0.0014502744
0.001291677
0.0017795251
0.0018927012
0.0013961142
0.00090315073
0.00045049959
0.00014725943
8.2310026e-05
0.00016745782
6.9623966e-05
5.1204396e-05
0.00014107311
0.00046375612
0.00089515165
0.0012583373
0.001332873
0.00109568
0.00079304462
0.0007529695
0.0010835279
0.0013932053
0.0013979138
0.0031617751
0.0028877157
0.0031309771
0.0031101466
0.0022231125
0.0013074023
0.0012830659
0.0017168796
0.0016541179
0.0013052209
0.00098258843
0.00063356551
0.00027673702
0.000101252
6.5366917e-05
5.9796325e-05
0.00011678827
0.00030020555
0.00064590899
0.0010281324
0.0012455867
0.0011714735
0.00090337675
0.0007481768
0.00088914562
0.0012392313
0.0013832493
0.0012657106
0.0034319142
0.00401754
0.0032947777
0.0031713986
0.0021403775
0.0012265313
0.0012402056
0.0015519687
0.0014908141
0.0012656749
0.0010907962
0.00089427113
0.00056485221
0.00028806589
0.00020552965
0.00023660201
0.00035140547
0.000564078
0.00084626158
0.0010653643
0.0011004359
0.00093399312
0.00077100646
0.00081733364
0.0010768604
0.0013164087
0.0013107564
0.0013007032
0.0061699
0.0034828408
0.0032100861
0.0021354052
0.0012065725
0.0011690397
0.001415955
0.0013847101
0.0012051595
0.0011431202
0.001135551
0.00094357279
0.00064673089
0.00047601539
0.00048629762
0.00059267957
0.00074839712
0.00089689838
0.00095101449
0.00088108362
0.00078352047
0.00080531815
0.00097941394
0.0012003233
0.0012692125
0.0012958328
0.0012952783
0.0037853468
0.0032538622
0.0022070187
0.0012202806
0.0011147631
0.0013290307
0.0013191294
0.0011427972
0.0010944674
0.0012156395
0.0012543987
0.0010909188
0.00087296686
0.00076270748
0.00076673999
0.00080867467
0.00083263361
0.00081541955
0.00078206011
0.00082177766
0.00094559801
0.0011233247
0.001210512
0.0011554268
0.0011552318
0.0012997172
0.0038581745
0.0033540457
0.0023630681
0.0012817684
0.0010888135
0.0012778835
0.0013092557
0.0011415002
0.0010193495
0.0011002264
0.0012830076
0.0013443153
0.0012388965
0.0010808307
0.00097077898
0.00090607912
0.00086241827
0.00084134294
0.00086642067
0.00096173879
0.0010773906
0.0011457375
0.0011077085
0.0010433713
0.0011704325
0.0033212894
0.011479441
0.003709426
0.0026545008
0.0013960996
0.0010732062
0.0012455368
0.0013398355
0.0012347075
0.0010425062
0.00096915473
0.0010744151
0.001236997
0.0013179257
0.0012624963
0.0011516746
0.0010541121
0.00098990926
0.00096781903
0.00099920708
0.0010513741
0.0010787994
0.0010491907
0.0010097574
0.0012022558
0.0016792805
0.0048825051
0.0032797797
0.0015843202
0.0010729217
0.0012104872
0.0013617262
0.0013711612
0.0012057387
0.0010022561
0.00092144755
0.00095839805
0.001066403
0.0011315154
0.0011244964
0.0010708015
0.00102793
0.0010078992
0.0010054799
0.00099748661
0.00096088512
0.00090811822
0.00094778151
0.00090486126
0.0048265614
0.0019580339
0.0010779336
0.0011590813
0.0013271078
0.0014605106
0.0014332734
0.001260906
0.0010312244
0.00088768798
0.00084763348
0.00086028111
0.00089626629
0.00090786378
0.00089839291
0.00088703158
0.00086838331
0.00083480999
0.00079839808
0.00083595614
0.00087985808
0.0017083026
0.0026464009
0.0011460407
0.0011175314
0.0012233897
0.0014252314
0.0015483764
0.0015593471
0.0014202365
0.0012050288
0.0010029992
0.00087332461
0.00081738822
0.00080596263
0.00080284546
0.00079631239
0.0007845373
0.00077979213
0.00083629573
0.00079875641
0.0014311576
0.0014463831
0.0012294077
0.0011278229
0.0012838063
0.0014722474
0.001639346
0.0017003071
0.0016547612
0.001526171
0.00137627
0.0012488059
0.001158816
0.0011002128
0.0010733742
0.0010881431
0.0011950054
0.0011172078
0.0017260648
0.0014424596
0.0010304172
0.0012082599
0.0014007613
0.0014889843
0.0016576543
0.0017834129
0.0018134602
0.0017738348
0.0017089296
0.0016745799
0.0016757885
0.0017731745
0.0015233213
0.0020617329
0.0015939705
0.0023333685
0.001365325
0.0014549372
0.0015541281
0.0017043666
0.0018181289
0.0018880984
0.0020136376
0.0021963433
0.0030112259
0.0069318108
0.0058454839
0.0031747339
0.0032856272
0.0036056951
0.0045940288
0.013850869
0.0059879851
0.0037800849
0.0030974037
0.0026851056
0.002406392
0.0023241858
0.002288288
0.0032143887
0.0066976119
0.0043119557
0.0039200555
0.0036813562
0.0034863186
0.0032894767
0.0030515599
0.002756016
0.0023923669
0.0020488076
0.0018698572
0.0016072719
0.002744401
0.0036139326
0.011894601
0.0042879269
0.0038056341
0.0036177894
0.0034766421
0.0033431744
0.0032341401
0.0031336041
0.0030274271
0.0028846718
0.0026672104
0.0023795601
0.002028502
0.0016918576
0.0014495501
0.0015823302
0.0013758961
0.0071670782
0.0038620369
0.0031236724
0.0026971133
0.0023896054
0.0021606654
0.0020124109
0.0019532462
0.0020141472
0.0021627788
0.0023282354
0.0024258009
0.0023961922
0.0022115173
0.0019286257
0.0016086019
0.0013743726
0.0012121185
0.0015613812
0.0036519602
0.0024358834
0.0020064974
0.0017319378
0.0015232511
0.0013676477
0.0012626204
0.0011959213
0.0011598743
0.0011694997
0.0012628117
0.0014454384
0.0017144869
0.0019690289
0.0020827444
0.0020089235
0.0017843199
0.0014909757
0.0012040123
0.0010425416
0.0012589737
0.0028285112
0.0015339709
0.0014661999
0.001444413
0.0014262155
0.0014024288
0.001376126
0.0013504393
0.0013321668
0.0013176951
0.0012905609
0.0012337689
0.0011889052
0.0012419879
0.0014232428
0.0016801876
0.001841859
0.0018119587
0.0016111576
0.0013234128
0.0010314673
0.0009462089
0.0013706139
0.0016306939
0.0015005305
0.0015613379
0.0016385572
0.0016785818
0.0016774365
0.0016481716
0.0016093313
0.0015800764
0.001562752
0.0015594756
0.0015383898
0.0014461001
0.0013099715
0.0012321652
0.0013330253
0.0015435876
0.001679292
0.0016279921
0.0014139329
0.0011123653
0.00091383682
0.0012463397
0.0028407801
0.0015390489
0.0015370482
0.0016614937
0.001827376
0.0019231957
0.001929089
0.0018587009
0.0017556491
0.0016695931
0.0016158108
0.0015764419
0.0015428447
0.0015317476
0.0015293782
0.0014625139
0.0013152946
0.0012170498
0.0013007632
0.0014762275
0.0015493925
0.0014333593
0.0011757164
0.00094437604
0.0011421632
0.0017579206
0.0016577754
0.0017462959
0.0019720104
0.0021269982
0.0021462296
0.0020282335
0.0018349478
0.0016726421
0.0015869904
0.0015244343
0.0014285999
0.0013141
0.0012400477
0.0012567865
0.0013182979
0.0013141183
0.0012259294
0.0011926777
0.001305766
0.001432504
0.0013985528
0.0011930724
0.00096676175
0.0011182613
0.0018539954
0.0042256271
0.0055651079
0.0019088597
0.0020398074
0.0022765643
0.0023516821
0.0022101878
0.0019190162
0.0016632237
0.0015711104
0.0015459327
0.0014189208
0.0011755018
0.00092268392
0.00076049702
0.0007392357
0.00087564371
0.0010555404
0.0011312267
0.0011277984
0.0011988588
0.0013315535
0.0013445284
0.0011759071
0.0009635683
0.0011171391
0.0017260551
0.0025838369
0.0026544632
0.0020595528
0.0023888622
0.0025633423
0.0024559869
0.0020775785
0.0016754963
0.0015380027
0.001598003
0.0015148392
0.0011677089
0.00074102295
0.000422174
0.0002759568
0.00025196758
0.00038356851
0.00065230563
0.00089830218
0.0010222797
0.0011262621
0.0012665242
0.0012958261
0.0011402213
0.0009399676
0.0011282764
0.0016985298
0.0022735459
0.0041276947
0.0023792791
0.0027220359
0.0027549022
0.0023890686
0.0017932764
0.0014789374
0.0015739883
0.0016323107
0.0012939106
0.00073141003
0.00029567912
0.0001349481
0.00011360868
9.9495873e-05
0.00013439373
0.00033639796
0.00064029905
0.00087979491
0.0010638869
0.0012328637
0.0012604412
0.0010955591
0.00090429369
0.0011568778
0.00171717
0.0020641474
0.0097366286
0.0025916712
0.0027491033
0.0030320658
0.002843418
0.0021751773
0.0015028117
0.00143053
0.0016484536
0.001484729
0.00094407111
0.00039858504
0.00013941046
0.00011506354
0.00014783344
0.00012005515
7.2685216e-05
0.00017513223
0.00045605441
0.00075557093
0.0010216695
0.0012286916
0.0012340181
0.0010345847
0.00087171574
0.0012305047
0.001799394
0.0019821856
0.004561717
0.0028196923
0.0031052927
0.0032954495
0.0028349411
0.001895387
0.0013293549
0.0014685904
0.0015915922
0.0012273968
0.00073832308
0.00032032249
0.00011557275
0.00010815965
0.00067899604
0.00024554248
6.2422829e-05
0.00011693355
0.00036824327
0.00069835913
0.0010365428
0.0012453467
0.0011815362
0.00094451525
0.00088343186
0.0013662624
0.0018533547
0.0020684887
0.0039787617
0.0029141278
0.0034541064
0.0035312844
0.0027777403
0.0016539406
0.0012556082
0.001453287
0.0014134236
0.001075154
0.00073681242
0.00037909749
0.00013086695
8.6544478e-05
0.00016353404
6.5498663e-05
6.0362043e-05
0.00013669
0.00039093213
0.00075804991
0.0011099444
0.0012311019
0.0010681517
0.00085804125
0.00098772278
0.0015414793
0.0018573664
0.0017459972
0.0036882631
0.0034384658
0.0037188865
0.0037426337
0.0027384179
0.0015204053
0.0012248399
0.0013652246
0.0012654874
0.0010449907
0.00082540795
0.00053075077
0.00022324686
0.00010145589
7.6261201e-05
6.8475973e-05
0.00011106871
0.00025989159
0.00055169816
0.00091189007
0.0011526501
0.0011204514