/*--------------------------------*- C++ -*----------------------------------*\
| =========                 |                                                 |
| \\      /  F ield         | OpenFOAM: The Open Source CFD Toolbox           |
|  \\    /   O peration     | Version:  2406                                  |
|   \\  /    A nd           | Website:  www.openfoam.com                      |
|    \\/     M anipulation  |                                                 |
\*---------------------------------------------------------------------------*/
FoamFile
{
    version     2.0;
    format      ascii;
    arch        "LSB;label=32;scalar=64";
    class       volScalarField;
    location    "650";
    object      k;
}
// * * * * * * * * * * * * * * * * * * * * * * * * * * * * * * * * * * * * * //

dimensions      [0 2 -2 0 0 0 0];

internalField   nonuniform List<scalar> 
150387
(
0.00065054572
0.00061601072
0.00061424072
0.00059774346
0.00055967095
0.00051468361
0.00045842587
0.00044048923
0.00052965076
0.00061588501
0.00067634915
0.00074477835
0.00080770674
0.00085827175
0.00087837823
0.00085748228
0.00079094466
0.0006872594
0.00056122011
0.000430329
0.00035671694
0.00045727816
0.00055989753
0.0006304162
0.00068982247
0.00075660065
0.00084403391
0.00094436571
0.0010254969
0.0010602579
0.0010391671
0.00096595237
0.00085554134
0.00070850994
0.00053025174
0.00036034531
0.0002824096
0.00034478672
0.00033229918
0.00044003958
0.00052002158
0.00056098711
0.00059333129
0.00065042599
0.00074197536
0.00086061617
0.00098386083
0.0010789556
0.0011233223
0.0011101866
0.001044106
0.00093069816
0.00077924974
0.00058938963
0.00037519687
0.00026414036
0.0003273629
0.0002825024
0.00042592763
0.00056895241
0.00066961281
0.00071295339
0.00070389494
0.00067870461
0.00067447539
0.0007059259
0.00080224964
0.00093369391
0.0010502433
0.001112705
0.001106757
0.0010409178
0.00093235612
0.00078059177
0.00057888393
0.000359021
0.00022420157
0.00029420472
0.00045141836
0.00059469499
0.00068933396
0.0007493734
0.00080267971
0.00085366567
0.00085619076
0.00079483041
0.00072894207
0.00071519583
0.0007704904
0.00089751696
0.0010157695
0.0010757601
0.0010676462
0.0010028914
0.00089319814
0.00073099431
0.00052090936
0.00029641258
0.00023530279
0.00028493098
0.00046204625
0.00064394744
0.00075843742
0.00081058002
0.00081746242
0.00079207309
0.00075566018
0.00076400515
0.0008120658
0.00082966869
0.00076624045
0.00072710016
0.00077090708
0.00088344316
0.00098542215
0.0010294291
0.0010144993
0.00094304457
0.00081889163
0.00064197505
0.00042581356
0.0002599643
0.00026550941
0.00034252657
0.00043620137
0.00067060966
0.00083871185
0.00092849182
0.00096134356
0.00095584442
0.00092466348
0.00087804581
0.00080287752
0.00073206488
0.00069364702
0.00072982521
0.00072961095
0.00071361855
0.00076485257
0.00087013533
0.00095720269
0.00097767448
0.00094836218
0.00085662003
0.00071221489
0.00053276368
0.00034135061
0.00027379361
0.00037419025
0.00062769807
0.00086584415
0.0010083401
0.0010740266
0.0010839262
0.0010541325
0.00099036549
0.00092295557
0.00084764857
0.00077924854
0.00072967763
0.00067474081
0.00064742108
0.00065792518
0.0006773549
0.00075221148
0.00086044631
0.00092321496
0.00092098341
0.00085807695
0.00074315926
0.00060644308
0.00042794029
0.00033425049
0.00041091029
0.00050242874
0.00081033215
0.0010359059
0.0011526252
0.0011900918
0.0011667343
0.0010885192
0.0010004166
0.00089327947
0.00079415208
0.00069925653
0.00063808165
0.00061498326
0.00061731081
0.00060025644
0.00060790599
0.00064887696
0.00075468499
0.00085509529
0.00087683016
0.00083554412
0.00074968052
0.00065852834
0.00049751999
0.00041132266
0.00042496038
0.00041143372
0.00064976821
0.00097272778
0.0011808993
0.0012647396
0.001259594
0.0011814402
0.0010706431
0.00094877248
0.00083505548
0.00073134415
0.00064357033
0.00059627768
0.00054884733
0.00053621101
0.00056809981
0.00056370588
0.00058111572
0.00065707893
0.00078317635
0.00083187711
0.00079515772
0.00075549291
0.00068554997
0.00053817494
0.00047023996
0.00046392503
0.00048656367
0.00078185431
0.0011091193
0.0012899686
0.0013280542
0.0012604679
0.0011376326
0.0010085051
0.00089676859
0.00080505514
0.00070967854
0.00063231858
0.00043677667
0.00022163527
0.00016196894
0.0002648728
0.00048724343
0.00054353039
0.00059627708
0.00072285849
0.00078949278
0.00074684826
0.00077805992
0.0006596839
0.0005430308
0.0005058729
0.00049951177
0.0005382496
0.00054775116
0.00089853618
0.0012074701
0.0013503953
0.001323723
0.001193188
0.0010522831
0.00094569237
0.00088336621
0.00083526268
0.0006925054
0.0004880209
0.00013272909
0.0001024324
9.2220809e-05
0.00010188472
0.00026888363
0.00050619039
0.0005620752
0.00068802806
0.00072723698
0.00072257366
0.00075327381
0.00059524549
0.00053118004
0.00053293728
0.00053207971
0.00048738233
0.00059505597
0.00097762323
0.0012609939
0.0013516811
0.0012442782
0.0010777675
0.00095460074
0.00092788251
0.00093920824
0.00079541898
0.00059313572
0.00033508952
0.00010288112
0.00013241395
0.00012425827
0.00017691959
0.00015401392
0.00046088277
0.00055403752
0.00065409109
0.00065794956
0.00070716069
0.00064059643
0.0005518965
0.00054207407
0.0005658951
0.00055862554
0.00044861173
0.00063389528
0.001008682
0.001262534
0.0012957484
0.0011155853
0.00096382603
0.00090651508
0.00098470078
0.00094401702
0.00069107449
0.00053294291
0.00035522114
0.00011662587
0.00014055029
0.00015600852
0.00013659355
0.0001533787
0.0004762317
0.00057004333
0.00061239667
0.00061476874
0.0006175853
0.00055919444
0.00055471178
0.00059005924
0.00060996903
0.00055984872
0.00043329787
0.00063244766
0.00099764393
0.0012068475
0.0011716115
0.00096820661
0.00087681034
0.00092145623
0.0010897747
0.00081934562
0.00065893352
0.00051982092
0.00046765053
0.00020952466
0.00010039699
0.00010327841
0.00013025273
0.00033678691
0.0005188931
0.00053717728
0.00052508234
0.00054507126
0.00055132466
0.00056202136
0.00061543305
0.0006619167
0.00064126606
0.00053649492
0.00041766209
0.00053047131
0.00094345942
0.0011117509
0.001006173
0.00085035229
0.00084353913
0.00098737126
0.0010892966
0.00076788752
0.00066899949
0.00053775506
0.0005241892
0.00047262036
0.00031727091
0.0002905281
0.00037662717
0.00046367335
0.00048063862
0.00048776277
0.0005054721
0.00053914597
0.00058254946
0.0006542752
0.00071053967
0.00072098112
0.00063793425
0.00047914607
0.00043931122
0.0006281943
0.0008606653
0.0010018524
0.00085420815
0.00077458607
0.0008399988
0.0010718279
0.00093155354
0.00080619501
0.00071665544
0.00058189913
0.00055024152
0.000561301
0.00052536836
0.00046561919
0.0004558737
0.00046270257
0.00047609501
0.00050285865
0.00055234812
0.00063294999
0.00070998114
0.00076275171
0.00078189271
0.0007335115
0.00058997213
0.00040543339
0.00074640644
0.00089385702
0.00074921233
0.00071997774
0.00084772068
0.00108436
0.00084724081
0.00086523265
0.00078197069
0.00064476347
0.00060275309
0.00062672624
0.00061042831
0.00059133945
0.00055731289
0.00055416537
0.00058484847
0.00064531065
0.00071477457
0.00077403905
0.00081473921
0.00082921868
0.00079655139
0.00068684586
0.00049538179
0.00034427501
0.00064358665
0.00079097514
0.00068815464
0.00067327363
0.00085048101
0.0010070835
0.00086186379
0.00091349026
0.00085109971
0.00072426566
0.00063912481
0.00068772693
0.0007444334
0.00071194061
0.0007126651
0.00072839367
0.00075703433
0.00079677378
0.00083566598
0.00086309385
0.00086716634
0.00083415034
0.00074689914
0.00058349387
0.00037360392
0.00031081894
0.00066954375
0.00064312552
0.00062396766
0.00082066631
0.00091630436
0.00088675163
0.00094508452
0.00091120689
0.00080848479
0.00068378008
0.00066689652
0.00078761115
0.00087834379
0.00084809033
0.00082798024
0.00085046352
0.00087421474
0.00088937324
0.00088464176
0.00084824428
0.0007678425
0.00062939405
0.00043291854
0.00029537143
0.00050506625
0.00058794973
0.00055004671
0.0007395495
0.00081943371
0.00087410029
0.00095152486
0.00095241765
0.00088406974
0.00076275639
0.00066450331
0.00068451733
0.00082496834
0.00095445122
0.00096124107
0.00091788313
0.00089265164
0.00087223627
0.00082933968
0.00075041657
0.00062782895
0.00045698675
0.0002861905
0.00030938036
0.00046686045
0.00042815848
0.00059381283
0.00068960501
0.00081122741
0.0009178611
0.00096003761
0.00093503123
0.00084895764
0.00073019014
0.00064282311
0.00065626296
0.00077026752
0.00089213635
0.00092139821
0.00087072587
0.0007973554
0.00071028421
0.00059607141
0.00044333414
0.00028149587
0.00025116689
0.00028875078
0.00040409313
0.00052225165
0.00068303738
0.00082593319
0.00091348403
0.00094038002
0.00090275391
0.00081140012
0.00070240724
0.00062268483
0.0006072854
0.00063457202
0.00068748026
0.00069593879
0.00063836303
0.00053212492
0.00039022269
0.00025691992
0.00022395599
0.00024673602
0.00033456158
0.00048998563
0.00065809525
0.00078795879
0.00086664105
0.00088568034
0.00084375136
0.00076253182
0.00068211923
0.00062656613
0.00059608515
0.00057117085
0.00052608088
0.00045248501
0.00034978359
0.00026706448
0.00025272588
0.00022546781
0.00030184861
0.00042839002
0.00056691184
0.00068455679
0.00075525676
0.00077735279
0.00074907542
0.00069137422
0.00062931729
0.00057496951
0.00052407041
0.0004679631
0.00039931521
0.00032788319
0.00035504054
0.00027893702
0.0003584982
0.00043876683
0.00053599965
0.00060171917
0.00062984848
0.00062172731
0.0005885861
0.00054250497
0.00050218811
0.00044031954
0.00046000311
0.00041403747
0.00042142138
0.00042852713
0.00044748676
0.00051093497
0.00055102013
0.00098947128
0.0010002834
0.0009890156
0.00095190614
0.00090189239
0.00084047881
0.00076866339
0.00067481481
0.0006498015
0.00085410737
0.00094771666
0.0010388086
0.0011536413
0.0012744435
0.0013759268
0.0014298848
0.0014162164
0.0013147705
0.0011542969
0.00094276816
0.0007536084
0.00053968006
0.00051013868
0.00061812826
0.00069302762
0.00074000121
0.00081450443
0.00091422119
0.0010363126
0.0011803398
0.0013375097
0.0014813203
0.0015769498
0.001591888
0.0015193973
0.0013575753
0.0011335774
0.000881673
0.00060687217
0.0004364963
0.00040404682
0.00050849945
0.00058539531
0.00065461983
0.0007078742
0.00074615653
0.00077566685
0.00083763761
0.00095899241
0.0011296569
0.001331748
0.0015152818
0.001603844
0.0015731721
0.0014296411
0.0012109394
0.00091518724
0.00063442651
0.00039770625
0.00035078045
0.00052657316
0.00068870266
0.00082304051
0.0009180308
0.00097998537
0.0010181135
0.0010332171
0.0010076271
0.00096630895
0.00095879076
0.0010472712
0.001227868
0.0014300518
0.0015552363
0.0015498279
0.0014241632
0.0011895524
0.00089274556
0.00058341955
0.00033310459
0.00040478316
0.00059038127
0.00081594121
0.0010111008
0.0011483704
0.0012342174
0.0012810866
0.0013021612
0.0013144486
0.0013201904
0.0012815313
0.0011866908
0.0010927446
0.0010847029
0.0012078719
0.0013886125
0.0015080237
0.0015015173
0.0013621433
0.0011128783
0.00079875194
0.00048599806
0.00029706141
0.00058125102
0.00087530753
0.0011426789
0.0013289764
0.0014394301
0.0014925626
0.0014996915
0.0014645333
0.0013984757
0.0013347125
0.001306734
0.0012881434
0.0012292845
0.0011414855
0.0011219091
0.0012254698
0.0013832501
0.0014749403
0.001435537
0.0012578781
0.00097789525
0.00064035085
0.00039169489
0.00030783295
0.00047820921
0.00087042403
0.0012045976
0.0014491785
0.0015896204
0.0016468607
0.0016429335
0.0015963332
0.001521597
0.0014179367
0.0012830623
0.0011445004
0.0010598467
0.001055409
0.001067248
0.0010662888
0.0011169762
0.0012537605
0.0013968603
0.0014408434
0.0013345222
0.0011014897
0.00077117929
0.00049713848
0.00032330278
0.00075625249
0.0011514875
0.0014861844
0.0016860541
0.0017597613
0.0017350701
0.0016493216
0.0015390963
0.0014173466
0.0012707648
0.0011026691
0.0009465137
0.00083506083
0.00078519865
0.000817458
0.00089163456
0.00098473089
0.0011296184
0.0013035157
0.0014101465
0.0013639056
0.0011742614
0.0008605437
0.00057680874
0.00043274515
0.000499206
0.00065044318
0.00096734454
0.0014215041
0.0017190596
0.0018419677
0.0018147514
0.001687108
0.0015417532
0.0014156048
0.00127022
0.0010600881
0.00082832869
0.00063884266
0.00053005786
0.00051063014
0.00055651259
0.00065613134
0.00079654435
0.00098435974
0.0012018222
0.0013618307
0.0013620793
0.0012068523
0.0009094376
0.00062514591
0.00046802358
0.00054851162
0.00064971122
0.0012088187
0.0016495731
0.001876048
0.0018900996
0.0017371882
0.0015398407
0.0014298496
0.0013445522
0.0011522507
0.00084514174
0.00055299078
0.00034208698
0.00023763393
0.00022617164
0.00030645099
0.00043766624
0.00060276792
0.00082380701
0.0010919596
0.0013017305
0.0013345973
0.0012112603
0.00092412535
0.00064318392
0.000502078
0.00056621938
0.0007133138
0.0014084289
0.0018084624
0.0019416503
0.0018151322
0.0015532048
0.0014023429
0.0014186946
0.0013336596
0.00099947038
0.00059194044
0.00028527472
0.00013699071
0.00010334513
9.2504412e-05
0.00012815624
0.00026245114
0.00044512102
0.00068184265
0.00098768078
0.0012356219
0.0012928543
0.0011972187
0.00090263483
0.00063505989
0.00054178508
0.00059596517
0.00076053378
0.00083733277
0.0015593027
0.0018986419
0.0019050932
0.001629059
0.0013521325
0.001388448
0.0014912936
0.0012741806
0.00077480396
0.00036989846
0.00014579305
0.0001060646
9.7508447e-05
9.2759083e-05
7.2351337e-05
0.00015550485
0.00034038376
0.00058472637
0.00091322408
0.0011728736
0.0012498363
0.0011459929
0.00083858404
0.00061917304
0.00060787161
0.000648323
0.00076480183
0.0011142809
0.0016357915
0.0019092601
0.0017671321
0.0013897441
0.0012397177
0.001494547
0.0015462188
0.0011248495
0.00061258917
0.00029056473
0.00011702502
9.436258e-05
0.00015024192
0.00011766907
6.769989e-05
0.00011148465
0.0002965763
0.00055296412
0.00088094182
0.0011218538
0.0011946642
0.0010417688
0.00075131207
0.00063540907
0.00069057351
0.00075289145
0.0007573717
0.00094559105
0.0016488914
0.0018466485
0.0015568152
0.0011835845
0.0012456705
0.0016015262
0.0015278102
0.00098768469
0.00060037126
0.00031729267
0.000137003
9.0159681e-05
0.00012062703
8.9067495e-05
6.5537121e-05
0.00013038769
0.00033078085
0.00058741424
0.00086938689
0.0010801511
0.0010933482
0.00089952783
0.00069872534
0.00071196056
0.00077851219
0.0007068007
0.00073698499
0.0010099153
0.0015802494
0.0017222125
0.0013303375
0.0010479278
0.0013003052
0.0016506094
0.0014122881
0.00099514857
0.00068571317
0.00041860848
0.0002190971
0.00010498424
7.6540983e-05
7.5307688e-05
0.00011821973
0.00023474878
0.00042127554
0.00063975435
0.00087317011
0.0010106662
0.00094822561
0.00078815765
0.00073600046
0.0008227889
0.00083720114
0.00069409864
0.00070826471
0.0010343733
0.0014670475
0.0015550775
0.001153101
0.00098059756
0.0013285917
0.0016005218
0.0013695449
0.0010905733
0.00082142807
0.00058808447
0.00038997448
0.00023744241
0.00018002097
0.00019401028
0.00025793246
0.00036651101
0.00051460397
0.00069327155
0.00086012295
0.00090499026
0.00083224882
0.00078459934
0.00084838539
0.00091750956
0.00083178645
0.00062675419
0.0010268301
0.0013363582
0.0013674698
0.0010148799
0.00093885701
0.0012950582
0.0014997102
0.0013843737
0.0011741619
0.00096467876
0.00080955369
0.00063844302
0.00046004387
0.00034921442
0.00034076193
0.00039302936
0.00048497209
0.00061147735
0.0007476579
0.00083587085
0.00084319391
0.00083650855
0.00089160339
0.00096910063
0.00094355414
0.00074163324
0.00055644492
0.0012020702
0.0011867799
0.00090463073
0.00089300905
0.0012234393
0.001439809
0.0014069535
0.0012224146
0.0010570747
0.00099871946
0.00094028229
0.00080567651
0.00066555123
0.00060022411
0.00061517054
0.00068047698
0.00076729534
0.00084195401
0.00088287815
0.00090947357
0.00096007238
0.0010228746
0.0010186101
0.00087790433
0.00063200763
0.00049318444
0.0010258003
0.0010369097
0.00080844957
0.00082722028
0.0011333251
0.0013775917
0.0013978969
0.001255157
0.0010932513
0.0010664451
0.001119647
0.001137216
0.001069193
0.00098418802
0.00094953382
0.00096399516
0.00098897681
0.0010115224
0.001032843
0.0010616812
0.0010894498
0.0010745705
0.00095841112
0.00073058608
0.00053460009
0.00049983407
0.00097436783
0.00093954762
0.00072506466
0.00074348481
0.0010212947
0.0012904212
0.0013823799
0.0012945444
0.0011193452
0.0010336644
0.0011092417
0.0012298537
0.0012914658
0.0012948169
0.0012592562
0.0012255063
0.0012157165
0.0011997074
0.0011732456
0.0011510837
0.0010980617
0.00097642719
0.00076691793
0.00052161822
0.00041494478
0.00092827995
0.00066962981
0.00064116196
0.00088413648
0.0011668897
0.0013332428
0.0013331301
0.0011922326
0.0010270946
0.00097508274
0.0010678442
0.0012093227
0.0012941096
0.0013224541
0.0013018166
0.0012501172
0.0012160619
0.0011570032
0.0010740073
0.00094922389
0.00076700425
0.00055421943
0.00043620098
0.00065015205
0.00053002949
0.00071152412
0.00099007569
0.0012200626
0.0013221994
0.0012789487
0.0011274548
0.00096831673
0.00089245015
0.00093636857
0.0010398308
0.0011210392
0.0011447763
0.0011148034
0.0010596066
0.00097454799
0.00085869356
0.00070292071
0.00052162525
0.00041432167
0.0003675885
0.00040723971
0.00052406872
0.00075697385
0.0010202145
0.0012067979
0.0012854158
0.0012365337
0.0010945296
0.00093374655
0.00081343352
0.00077466162
0.00078709601
0.00080702348
0.0008026411
0.00076151378
0.00068576939
0.00057844279
0.00045304875
0.00036924224
0.0003247419
0.00034411684
0.00050503232
0.00074306649
0.00096070975
0.0011293332
0.0012137868
0.001184417
0.001077662
0.00094028676
0.00081707087
0.00072587357
0.00066899853
0.00062579825
0.00057889259
0.00051961892
0.00044017961
0.00032860923
0.00032697264
0.00034850176
0.00044708901
0.00064481986
0.00080361063
0.0009683552
0.0010619969
0.0010783088
0.0010103808
0.00089860534
0.0007860941
0.0006940499
0.00062368496
0.00057539409
0.00044776757
0.00041024638
0.00046642743
0.00050351912
0.00060731204
0.00072319024
0.00083443403
0.00087892492
0.00086551164
0.00080871403
0.00075126093
0.00071404067
0.00071397748
0.00062802799
0.00071089448
0.00073071817
0.00076331344
0.00079202765
0.00081100383
0.0012209853
0.0012020096
0.0011902324
0.0011702284
0.0011039122
0.0010184848
0.0009154331
0.00075850028
0.00072383911
0.0011877637
0.0013552196
0.0014958763
0.0016385252
0.0017670551
0.001852022
0.0018707139
0.0018099665
0.0016455684
0.0014206846
0.0011464115
0.00090056609
0.00061488043
0.00056357681
0.00096177659
0.0010326971
0.0011307835
0.0012689363
0.0014164048
0.0015643689
0.0017123938
0.0018503425
0.0019620889
0.0020205476
0.0019940197
0.0018776131
0.0016639734
0.0013856143
0.0010667067
0.00070110783
0.00050975901
0.00068359402
0.00073446214
0.00082378165
0.00091765833
0.00099251188
0.0010491502
0.0010995685
0.0011705029
0.0013019491
0.0014951089
0.0017121979
0.0018882077
0.0019645048
0.0019125505
0.0017347153
0.0014665473
0.0010889483
0.00073909479
0.00043563027
0.00043991563
0.0006254461
0.00080074163
0.00095325602
0.0010590297
0.001120564
0.0011488311
0.0011568261
0.0011421007
0.0011205245
0.0011403672
0.0012587667
0.0014753159
0.0017086426
0.0018560959
0.0018543854
0.001709112
0.0014229643
0.0010555356
0.0006630832
0.00037858527
0.00046162405
0.00066375556
0.00092855094
0.0011685769
0.0013361243
0.0014329274
0.0014774903
0.0014864283
0.0014730907
0.0014539924
0.0014113189
0.0013230176
0.0012298282
0.0012285764
0.0013757055
0.0015988667
0.0017598539
0.0017717834
0.0016158366
0.0013174075
0.00092705028
0.0005514747
0.00034911811
0.00065645755
0.0010174854
0.0013504476
0.0015785157
0.001704193
0.0017539402
0.0017520967
0.0017154713
0.0016534962
0.0015760959
0.001510793
0.0014593434
0.001381029
0.0012741351
0.0012383358
0.0013537197
0.0015561516
0.0016952827
0.0016738573
0.0014746642
0.001138209
0.00073302521
0.00048240781
0.0004150969
0.00052656457
0.0010332736
0.001443732
0.0017367966
0.001895734
0.0019449816
0.0019151293
0.0018397132
0.0017449971
0.0016375911
0.0015141705
0.0013868349
0.0012902128
0.0012497782
0.0012248627
0.0011862718
0.0012112556
0.0013625976
0.0015549485
0.0016409204
0.0015399486
0.0012711182
0.00088470592
0.00060001004
0.00044945297
0.00088805265
0.0013848864
0.0017840699
0.0020126515
0.0020813545
0.0020214167
0.0018871066
0.0017378016
0.0015937883
0.001434227
0.0012553776
0.00109051
0.00097747931
0.0009340322
0.00096154398
0.0010142687
0.0010737167
0.0012050355
0.0014114863
0.0015675672
0.001546264
0.0013371386
0.00098184765
0.00067886434
0.00059617564
0.00072406534
0.00071362798
0.0011529664
0.0017078653
0.0020573964
0.0021847416
0.0021179715
0.0019235815
0.0017183927
0.0015606584
0.0013980506
0.001165477
0.00090173993
0.0006826835
0.00055571843
0.00053570249
0.00060554469
0.00073061531
0.00087100804
0.0010444411
0.0012791338
0.0014871538
0.0015233616
0.001357006
0.001028563
0.00073097277
0.00064125034
0.00076187307
0.00073227136
0.0014568617
0.001986757
0.0022412753
0.002225302
0.0019919901
0.0017123636
0.0015489334
0.001442496
0.0012205695
0.00086850219
0.00053495798
0.00031048088
0.00021051405
0.00019888218
0.00028462838
0.00044531986
0.00064159602
0.00087143089
0.0011549342
0.00141145
0.0014862733
0.0013457548
0.0010353366
0.00076066079
0.00070425812
0.00077361956
0.00081071573
0.0017165805
0.0021872875
0.002321907
0.0021252207
0.0017521352
0.0015277541
0.0014888606
0.0013743039
0.00099376744
0.00054546764
0.00023385234
0.00011778273
9.9703046e-05
9.0266524e-05
0.0001167792
0.00024493093
0.00045087169
0.00071522942
0.0010477957
0.0013469817
0.0014417673
0.0013150477
0.0010102241
0.00077519702
0.000783876
0.00081699503
0.00094116966
0.0010081727
0.0019251187
0.0023182915
0.0022954397
0.0019097951
0.0015115224
0.0014809346
0.0015008952
0.00125185
0.0007354382
0.00031884088
0.00012402158
0.00010214207
9.9964911e-05
9.1875876e-05
6.942638e-05
0.000140168
0.00032951614
0.00060707494
0.00097771646
0.0013053661
0.0013964637
0.0012568728
0.00095227477
0.00079805822
0.00089943364
0.00089532452
0.00092215356
0.0013572636
0.0020478259
0.0023683585
0.0021722399
0.0016501038
0.0013746934
0.0015357714
0.0015015728
0.0010785241
0.00060026111
0.00026265603
0.00010668736
9.701634e-05
0.00015639917
0.00012083291
6.5389186e-05
0.00010142288
0.00027820972
0.00056846471
0.00096898182
0.0012844054
0.0013370632
0.001154313
0.0008871639
0.00086909119
0.0010201199
0.00097063638
0.00089003872
0.0011473037
0.0021024063
0.0023476705
0.0019907089
0.0014267968
0.0013509182
0.0015793412
0.0014429329
0.00099721654
0.00061932344
0.00030107486
0.00011883772
8.6653293e-05
0.0001170415
7.1901746e-05
6.4568569e-05
0.00011666664
0.00030937925
0.00062147613
0.0010094937
0.0012601798
0.0012336192
0.0010211544
0.0008719181
0.0010010386
0.0011214356
0.00093226496
0.00084822021
0.0012224059
0.0020570746
0.0022686482
0.0018003092
0.0012821837
0.001369545
0.0015722983
0.001373151
0.0010407368
0.0007214638
0.00042163113
0.0001907581
9.7218221e-05
7.7208876e-05
7.109103e-05
0.00010250018
0.00021055472
0.00042853152
0.00074043091
0.0010552065
0.0011832057
0.001079412
0.00092480488
0.00095593926
0.0011526402
0.0011496135
0.00089675037
0.00080053932
0.0012075056
0.0019471848
0.00213904
0.0016380765
0.0012077558
0.0013647534
0.0015274974
0.0013710368
0.0011179174
0.00086950923
0.00062121148
0.00036591152
0.00020575318
0.00016683012
0.00018044576
0.00024573643
0.00038008983
0.00059284328
0.00084922827
0.0010338171
0.0010421392
0.00095006691
0.00095043002
0.0011183858
0.001255383
0.0010906885
0.00076806789
0.0012193565
0.0018009502
0.0019663084
0.0015110001
0.0011636079
0.0013293017
0.0014952448
0.0013946329
0.0011835414
0.0010152625
0.00087131659
0.00064605927
0.00042445332
0.00032901151
0.0003463958
0.00042142654
0.00055061761
0.00071955812
0.00087445266
0.00094282628
0.00093276516
0.00095862402
0.0010995803
0.0012640461
0.0012435329
0.00093925321
0.00066164804
0.001621438
0.0017628237
0.0013936377
0.0011153206
0.0012886994
0.001483531
0.001424314
0.0012353068
0.0011015613
0.0010670957
0.00098336483
0.00079207845
0.00062945066
0.00058013252
0.00061914247
0.00070154142
0.00079705923
0.00087051288
0.00091627331
0.00098093962
0.0011102535
0.0012600295
0.0013006938
0.001125793
0.0007752856
0.00055223239
0.0013504996
0.0015429346
0.0012699737
0.0010557147
0.001234253
0.0014738817
0.0014785398
0.0013041952
0.0011432881
0.0011262154
0.001160307
0.0011408795
0.0010267873
0.00092458188
0.00088835355
0.0009000146
0.00093259271
0.0009791406
0.0010503332
0.0011564912
0.0012703056
0.0013127418
0.0011985712
0.00091146201
0.00065020867
0.00054884068
0.0012955358
0.0013420171
0.0011362645
0.0009722459
0.0011502204
0.0014358289
0.0015301897
0.0014145506
0.0012160381
0.0011214061
0.0011768484
0.0012471099
0.0012568504
0.0012220202
0.0011735951
0.0011463174
0.0011478918
0.0011758969
0.0012282913
0.0012826435
0.0012884071
0.001183576
0.00093919304
0.00062170109
0.00047649404
0.0012422238
0.0010217049
0.00086011599
0.00101983
0.0013439938
0.0015410327
0.0015351733
0.0013695536
0.0011740162
0.001094427
0.0011511511
0.0012345185
0.0012743904
0.0012796328
0.0012638112
0.0012557772
0.0012580658
0.0012560461
0.0012218393
0.0011178397
0.00091932576
0.00066173115
0.00052027594
0.00097905965
0.00074339862
0.00083597374
0.0011668365
0.0014593699
0.0015864293
0.001545667
0.0013703978
0.001169212
0.001053235
0.001054014
0.0011126765
0.0011593022
0.0011707578
0.0011619428
0.0011385081
0.0010858986
0.00098412823
0.00081833691
0.00060629362
0.00047878489
0.00042749299
0.00064978706
0.00063137752
0.00089689573
0.0012440694
0.0014833122
0.0015986613
0.0015687333
0.001415669
0.0012144947
0.0010482741
0.00096040932
0.00093461811
0.0009303065
0.00091218316
0.00086830067
0.00079030333
0.00067463188
0.00053760994
0.00043911001
0.00038966534
0.00042365469
0.0005913222
0.00090604
0.0011923592
0.0014131391
0.0015511009
0.0015641142
0.0014772907
0.0013251505
0.0011638058
0.0010285223
0.00092460281
0.00083698326
0.00075609321
0.00067747124
0.00059863595
0.00043042602
0.0004255659
0.00039930397
0.00052960357
0.00077993828
0.00099118909
0.0012156141
0.001368378
0.0014360916
0.0013974836
0.0012921577
0.001156096
0.0010239104
0.00090883324
0.00082475259
0.00064247604
0.00060777046
0.00051785336
0.00058051429
0.00072372718
0.00089521714
0.0010683252
0.0011483747
0.0011571045
0.0010981748
0.001013575
0.00096504714
0.00096209036
0.00088726409
0.00077982414
0.00082625576
0.00087807719
0.00092670619
0.00097003646
0.0013992401
0.0013648992
0.0013707249
0.0013734237
0.001293771
0.001187861
0.0010474466
0.00082732112
0.00078616238
0.0015030869
0.0018061858
0.0019937887
0.0021488727
0.0022685787
0.0023204737
0.0022916097
0.0021757893
0.0019481605
0.0016626355
0.001320955
0.0010232083
0.00068252829
0.00060416098
0.0013313611
0.0015091751
0.0017147312
0.0019163409
0.0020796179
0.0022053866
0.002313009
0.0023978957
0.0024530746
0.0024557023
0.0023736972
0.0022053951
0.001936083
0.0016031804
0.0012185369
0.00078092225
0.00053562936
0.0011229549
0.0011707921
0.0013043807
0.001422048
0.0014972033
0.0015401498
0.0015760001
0.0016299869
0.0017480204
0.0019278022
0.0021260698
0.0022756004
0.0023201456
0.0022313682
0.0020108289
0.0016882109
0.0012391034
0.00081473998
0.00047661437
0.00071561814
0.00087164563
0.0010311344
0.001176943
0.0012778297
0.0013326314
0.0013519966
0.001350082
0.0013367774
0.0013282536
0.0013766899
0.0015282889
0.0017711403
0.0020189752
0.0021670877
0.0021504803
0.0019734868
0.0016307008
0.0011849899
0.00072174369
0.00042127934
0.00051370001
0.00074474739
0.0010115741
0.0012790534
0.0014833459
0.0016022626
0.001649737
0.0016495022
0.001620802
0.0015802211
0.0015286998
0.0014476178
0.0013772509
0.0014085872
0.0015913926
0.0018478413
0.0020298987
0.0020421427
0.0018569073
0.0014946008
0.0010236922
0.00061280055
0.00043721005
0.00070269344
0.0010937792
0.0014839558
0.0017682077
0.0019226579
0.0019712571
0.001948806
0.0018874934
0.0018091663
0.0017237524
0.001647358
0.0015815266
0.0014940764
0.0013916301
0.0013729676
0.0015207124
0.0017632758
0.0019332418
0.0019147848
0.0016789164
0.0012722647
0.00081083092
0.00063802429
0.00061802474
0.00056445652
0.0011413781
0.0016196434
0.0019699535
0.0021570081
0.0022019405
0.002141673
0.0020232349
0.0018881953
0.0017547691
0.0016257916
0.0015099184
0.0014279868
0.0013849424
0.0013477734
0.0012949782
0.0013205925
0.0014998577
0.0017351922
0.0018510479
0.0017435077
0.0014288198
0.00098304444
0.00074822959
0.00064079821
0.00099120243
0.0015720712
0.0020327025
0.0022955864
0.0023654407
0.002272886
0.0020841169
0.001878131
0.0016896469
0.0015042056
0.0013169657
0.0011562611
0.0010563812
0.0010363631
0.0010779395
0.0011231149
0.0011623573
0.0012917182
0.0015302042
0.001729032
0.0017265092
0.0014977045
0.0010975283
0.00083906699
0.00085255433
0.00098733425
0.00076151351
0.0013045604
0.0019472228
0.0023480742
0.0024894667
0.0023951054
0.002138518
0.0018594319
0.0016411319
0.001437055
0.0011854791
0.00091766641
0.00070147227
0.00057913694
0.0005688217
0.00066288546
0.00081112773
0.00094773851
0.0011052297
0.0013512701
0.001599248
0.0016697793
0.0015052984
0.0011538116
0.0009141121
0.00092974376
0.0010219684
0.00079413331
0.0016709369
0.0022760877
0.0025626563
0.0025344141
0.0022395078
0.0018740515
0.0016259257
0.0014614427
0.0012041512
0.00084444028
0.00051612743
0.0003021997
0.00021025074
0.00020439746
0.0002969131
0.00048333748
0.00069662268
0.00091732572
0.0011989555
0.001486722
0.0016029288
0.0014761939
0.0011638402
0.00097429454
0.0010348765
0.0010392295
0.00089232665
0.0019854879
0.0025190116
0.0026678455
0.0024274282
0.001959431
0.001634708
0.0015072824
0.0013349505
0.00094375601
0.00050998354
0.00022026407
0.0001254966
0.0001132376
0.00010473424
0.00012728289
0.00026237895
0.00048510136
0.0007494758
0.0010777242
0.0014010207
0.0015392957
0.0014266175
0.0011406739
0.0010284272
0.0011575703
0.001111807
0.001095072
0.0011537286
0.0022481769
0.0026948881
0.0026660218
0.0022002592
0.0016783225
0.0015318554
0.0014747599
0.0011786336
0.00069972801
0.00030812749
0.00013404554
0.00012577189
0.00011770571
9.8789297e-05
7.9593442e-05
0.00015263891
0.00035167945
0.00063318212
0.0010024522
0.0013514505
0.0014858756
0.0013583118
0.0010964238
0.0011012398
0.0013052408
0.001209966
0.001051635
0.0015757534
0.0024197955
0.0027919407
0.0025723473
0.0019315149
0.0015033688
0.0015317687
0.0014325878
0.0010223196
0.00059371926
0.00026609566
0.00012158756
0.00011960497
0.00015553263
0.00011310314
7.4349138e-05
0.00011610531
0.00029402552
0.00058761922
0.0009993263
0.0013398357
0.0014246489