/*--------------------------------*- C++ -*----------------------------------*\
| =========                 |                                                 |
| \\      /  F ield         | OpenFOAM: The Open Source CFD Toolbox           |
|  \\    /   O peration     | Version:  2406                                  |
|   \\  /    A nd           | Website:  www.openfoam.com                      |
|    \\/     M anipulation  |                                                 |
\*---------------------------------------------------------------------------*/
FoamFile
{
    version     2.0;
    format      ascii;
    arch        "LSB;label=32;scalar=64";
    class       volScalarField;
    location    "650";
    object      nut;
}
// * * * * * * * * * * * * * * * * * * * * * * * * * * * * * * * * * * * * * //

dimensions      [0 2 -1 0 0 0 0];

internalField   nonuniform List<scalar> 
150387
(
1.1002604e-05
1.8247471e-05
2.0296364e-05
2.0995928e-05
1.9946895e-05
1.6273265e-05
1.0484944e-05
6.7734657e-06
3.9640644e-06
1.8171444e-05
2.309071e-05
2.7990445e-05
3.2471258e-05
3.6120066e-05
3.807938e-05
3.7780228e-05
3.4801463e-05
2.9316206e-05
2.2597035e-05
1.504993e-05
6.1702226e-06
1.3132009e-05
1.8946182e-05
2.3224513e-05
2.6844953e-05
3.0584757e-05
3.5251053e-05
4.0741968e-05
4.5397903e-05
4.7752665e-05
4.7361797e-05
4.4357438e-05
3.9385266e-05
3.2107412e-05
2.2208885e-05
1.2330433e-05
4.8009401e-06
2.9842148e-06
1.1318678e-05
1.7512731e-05
2.1533677e-05
2.3044254e-05
2.4016887e-05
2.6330383e-05
3.0433077e-05
3.6031336e-05
4.2056368e-05
4.6939935e-05
4.970321e-05
4.988466e-05
4.7689536e-05
4.3404625e-05
3.6910976e-05
2.735257e-05
1.4877721e-05
5.5852516e-06
2.4318723e-06
9.8008804e-06
1.9529761e-05
2.8386195e-05
3.2860512e-05
3.307901e-05
3.0803534e-05
2.8268438e-05
2.7301479e-05
2.8021733e-05
3.2142294e-05
3.8131034e-05
4.3851683e-05
4.7483416e-05
4.837631e-05
4.6819187e-05
4.3592395e-05
3.806332e-05
2.8329405e-05
1.4537441e-05
6.6676751e-06
1.0230919e-05
2.1502001e-05
3.0666528e-05
3.4506914e-05
3.4466697e-05
3.3292668e-05
3.3106447e-05
3.2669355e-05
3.0031868e-05
2.7219327e-05
2.6758288e-05
2.9044275e-05
3.4972781e-05
4.0671858e-05
4.4309709e-05
4.5423444e-05
4.4534519e-05
4.2208893e-05
3.6871559e-05
2.6232142e-05
1.2158031e-05
5.5055606e-06
8.6586052e-06
2.0871708e-05
3.2412072e-05
3.7253201e-05
3.6652393e-05
3.3445035e-05
2.9071366e-05
2.4610153e-05
2.2538234e-05
2.324438e-05
2.499281e-05
2.3914717e-05
2.357791e-05
2.6222815e-05
3.1832978e-05
3.707603e-05
4.0250599e-05
4.1806929e-05
4.1719686e-05
3.9833851e-05
3.3658875e-05
2.1484848e-05
9.7171714e-06
4.8179247e-06
3.1902709e-06
1.7349256e-05
3.2222952e-05
4.0370024e-05
4.1811193e-05
3.9545553e-05
3.5749813e-05
3.1449274e-05
2.7193432e-05
2.2167408e-05
1.7937286e-05
1.5330553e-05
1.6554194e-05
1.8206465e-05
1.9263222e-05
2.2718036e-05
2.8379392e-05
3.3516815e-05
3.6502061e-05
3.86296e-05
3.8986393e-05
3.6438327e-05
2.8613373e-05
1.5948423e-05
9.9348825e-06
1.2148672e-05
2.8324348e-05
4.1139631e-05
4.6113438e-05
4.5648504e-05
4.2212447e-05
3.7403309e-05
3.1693246e-05
2.6701485e-05
2.1855258e-05
1.7773005e-05
1.472508e-05
1.2277573e-05
1.1694786e-05
1.3233342e-05
1.5601802e-05
2.003122e-05
2.605577e-05
3.10141e-05
3.4208489e-05
3.6151287e-05
3.6043379e-05
3.2555086e-05
2.2190972e-05
1.4144708e-05
1.1000072e-05
1.9296826e-05
3.7363809e-05
4.77029e-05
5.0552184e-05
4.8808766e-05
4.4118376e-05
3.7214361e-05
3.0792775e-05
2.4030054e-05
1.8424229e-05
1.3841967e-05
1.1256788e-05
1.0059854e-05
9.6540423e-06
9.4849737e-06
1.0836278e-05
1.3678519e-05
1.9159176e-05
2.5464399e-05
2.964842e-05
3.2528578e-05
3.4110257e-05
3.4599678e-05
2.6564607e-05
1.8927423e-05
1.4352131e-05
9.0979879e-06
2.7389402e-05
4.4564386e-05
5.2838318e-05
5.3869639e-05
5.0653524e-05
4.3860293e-05
3.5894871e-05
2.782922e-05
2.0666245e-05
1.4821126e-05
1.1007745e-05
9.8571849e-06
9.5720662e-06
9.3383848e-06
9.3225289e-06
8.9170326e-06
1.0198986e-05
1.3900834e-05
2.0531273e-05
2.5752562e-05
2.8481787e-05
3.2757997e-05
3.4998223e-05
2.8138978e-05
2.2427104e-05
1.7487912e-05
1.3992196e-05
3.4124986e-05
5.0144084e-05
5.6352542e-05
5.5394151e-05
4.9969061e-05
4.1711949e-05
3.299769e-05
2.4890307e-05
1.7952369e-05
1.2449563e-05
1.0223062e-05
8.3170653e-06
5.0642361e-06
4.3730883e-06
6.0692161e-06
8.812577e-06
9.0497257e-06
1.1123341e-05
1.6887329e-05
2.2476871e-05
2.5243855e-05
3.3080354e-05
3.2403933e-05
2.7249179e-05
2.4382997e-05
2.0623219e-05
8.16454e-06
1.9576537e-05
3.9942239e-05
5.3848782e-05
5.805003e-05
5.4379746e-05
4.6473125e-05
3.7932613e-05
3.0032664e-05
2.2885299e-05
1.6970818e-05
1.1030865e-05
8.6847765e-06
4.2364568e-06
4.7007932e-06
5.2496016e-06
6.1236058e-06
6.1963081e-06
9.0604726e-06
9.8275176e-06
1.4718002e-05
1.959815e-05
2.4016269e-05
3.2206111e-05
2.7954245e-05
2.5673073e-05
2.5647696e-05
2.3029185e-05
1.2274455e-05
2.1421762e-05
4.3135009e-05
5.5463002e-05
5.7436402e-05
5.0476355e-05
4.1405066e-05
3.3889223e-05
2.8644256e-05
2.303581e-05
1.4071023e-05
9.5348509e-06
7.1211338e-06
5.6405153e-06
2.6906889e-06
5.4852313e-06
1.0870396e-05
4.6851907e-06
8.8828311e-06
9.3732763e-06
1.3403596e-05
1.7502459e-05
2.4241984e-05
2.6875109e-05
2.5195806e-05
2.5822475e-05
2.7155128e-05
2.4807329e-05
1.1188416e-05
2.2412198e-05
4.3655116e-05
5.4638883e-05
5.4432342e-05
4.4719878e-05
3.6881314e-05
3.2257052e-05
2.9682174e-05
2.1066824e-05
1.1869144e-05
8.751553e-06
7.5447075e-06
5.5970283e-06
7.3261794e-06
1.043647e-05
1.0040887e-05
4.8911655e-06
8.8407598e-06
9.5405608e-06
1.3328927e-05
1.6760591e-05
2.1548716e-05
2.327723e-05
2.5085464e-05
2.8276704e-05
2.9437469e-05
2.5038986e-05
1.0270571e-05
2.0448928e-05
4.1970169e-05
5.1216997e-05
4.8498021e-05
3.8325003e-05
3.3593718e-05
3.2816082e-05
3.1628509e-05
1.6736198e-05
1.2184579e-05
8.63413e-06
8.6945078e-06
5.3894855e-06
5.8166091e-06
6.3386375e-06
4.5150333e-06
7.4590253e-06
8.7183106e-06
9.562495e-06
1.1609227e-05
1.5409387e-05
1.9839814e-05
2.3587374e-05
2.8221402e-05
3.2232132e-05
3.124587e-05
2.3671673e-05
4.1286324e-06
1.19377e-05
3.7802457e-05
4.5788457e-05
4.0618779e-05
3.3562847e-05
3.2963785e-05
3.5255108e-05
2.983774e-05
1.7864516e-05
1.4038741e-05
9.5742843e-06
8.8245032e-06
8.7248077e-06
7.0767145e-06
6.8259969e-06
7.8893988e-06
8.0843926e-06
8.026132e-06
9.5266727e-06
1.2339471e-05
1.6790961e-05
2.2261617e-05
2.8639919e-05
3.3585629e-05
3.578352e-05
3.1170392e-05
1.9461815e-05
6.8120839e-06
8.8846854e-06
3.1744068e-05
3.9466325e-05
3.3379704e-05
3.0824704e-05
3.3397529e-05
3.8519615e-05
2.4973378e-05
2.2047847e-05
1.7521809e-05
1.2098686e-05
1.0012365e-05
9.535202e-06
8.9192011e-06
8.0351982e-06
7.7434628e-06
7.9059483e-06
8.9941076e-06
1.1343258e-05
1.5440581e-05
2.2253905e-05
2.9674676e-05
3.4808324e-05
3.8083034e-05
3.7002734e-05
2.860676e-05
1.5543972e-05
2.3821893e-05
3.3103899e-05
2.8277431e-05
2.8967482e-05
3.4376862e-05
3.9212251e-05
2.5856158e-05
2.6951915e-05
2.2404357e-05
1.6339065e-05
1.3696527e-05
1.297663e-05
1.1410978e-05
1.0807145e-05
1.0531419e-05
1.1404724e-05
1.374538e-05
1.8111699e-05
2.4027487e-05
3.0366021e-05
3.5937595e-05
3.9381293e-05
3.9977008e-05
3.4961062e-05
2.2695253e-05
9.3968936e-06
1.6227099e-05
2.6885084e-05
2.5140879e-05
2.7454967e-05
3.584188e-05
3.8499525e-05
3.0770227e-05
3.2039131e-05
2.8293538e-05
2.2384218e-05
1.8051753e-05
1.8633646e-05
1.9049001e-05
1.7118765e-05
1.747452e-05
1.9173654e-05
2.2403996e-05
2.6693258e-05
3.1648803e-05
3.6642271e-05
4.0477909e-05
4.146326e-05
3.8588054e-05
2.9158942e-05
1.4205925e-05
6.830457e-06
1.977465e-05
2.273037e-05
2.5798122e-05
3.6841137e-05
3.9285347e-05
3.621649e-05
3.7172723e-05
3.4473034e-05
2.9504622e-05
2.3446662e-05
2.1937398e-05
2.6169855e-05
2.8142306e-05
2.5782974e-05
2.6203755e-05
2.9518981e-05
3.3524738e-05
3.7607268e-05
4.1012778e-05
4.2353483e-05
4.0158791e-05
3.295696e-05
1.9552909e-05
8.7928375e-06
1.0406548e-05
2.0144181e-05
2.2584671e-05
3.5769736e-05
3.9410554e-05
3.9855391e-05
4.1679979e-05
4.0297181e-05
3.6556533e-05
3.0625274e-05
2.5747379e-05
2.6305631e-05
3.2616872e-05
3.764624e-05
3.703826e-05
3.6488763e-05
3.8581374e-05
4.1260436e-05
4.2193354e-05
3.9960843e-05
3.3709372e-05
2.2347335e-05
1.0202965e-05
3.7519693e-06
1.2690326e-05
1.6117967e-05
2.9694592e-05
3.5421324e-05
4.0440024e-05
4.4096559e-05
4.452353e-05
4.2059439e-05
3.7168952e-05
3.1204132e-05
2.6947196e-05
2.8011083e-05
3.4678403e-05
4.1807322e-05
4.3991851e-05
4.2982622e-05
4.125211e-05
3.8335006e-05
3.2344296e-05
2.1882328e-05
9.4539984e-06
4.1511064e-06
8.1515699e-06
1.8391429e-05
2.6197913e-05
3.540999e-05
4.2003991e-05
4.4925775e-05
4.503728e-05
4.2243422e-05
3.7239118e-05
3.1670328e-05
2.7775411e-05
2.7692794e-05
2.9943486e-05
3.4293457e-05
3.6294473e-05
3.4232114e-05
2.834679e-05
1.8746417e-05
9.3421609e-06
6.0403715e-06
6.1066159e-06
1.3530169e-05
2.3579499e-05
3.3489544e-05
3.9888993e-05
4.3170917e-05
4.341538e-05
4.0649544e-05
3.6131555e-05
3.2053636e-05
2.9587197e-05
2.8539258e-05
2.7710688e-05
2.5514824e-05
2.1189275e-05
1.4453276e-05
8.5502587e-06
4.8341469e-06
3.3149133e-06
1.0216974e-05
1.8593515e-05
2.6857902e-05
3.3432699e-05
3.6905267e-05
3.7745739e-05
3.5775434e-05
3.2344265e-05
2.8902983e-05
2.5910373e-05
2.2881298e-05
1.9127592e-05
1.465056e-05
1.0055391e-05
4.0528935e-06
3.4373986e-06
1.1583415e-05
1.7197738e-05
2.2653614e-05
2.6661019e-05
2.7860101e-05
2.6860667e-05
2.4349656e-05
2.06574e-05
1.7307608e-05
1.3060939e-05
8.3213267e-06
7.1625444e-06
9.5576068e-06
1.0514485e-05
1.1242734e-05
1.227433e-05
7.5384707e-06
1.0482289e-05
2.535923e-05
3.8529563e-05
4.0961419e-05
4.0848772e-05
3.845769e-05
3.1159466e-05
2.6735525e-05
1.581473e-05
2.1539556e-05
3.7028061e-05
4.7197583e-05
5.9042184e-05
7.1880665e-05
8.3682699e-05
9.2439921e-05
9.6298146e-05
9.2788732e-05
8.2206162e-05
5.8968092e-05
4.373769e-05
1.2052374e-05
7.6310352e-06
9.3026839e-06
2.6143461e-05
3.3166314e-05
4.1010887e-05
5.033563e-05
6.1045584e-05
7.3944349e-05
8.8789494e-05
0.00010359355
0.00011548624
0.00012170597
0.00012095626
0.00011218608
9.3765152e-05
6.7013497e-05
2.7787057e-05
1.7507224e-05
9.6425971e-06
2.2205994e-05
3.1619785e-05
4.086893e-05
4.8287604e-05
5.3510428e-05
5.6887946e-05
6.2313836e-05
7.2986847e-05
8.6164646e-05
0.00010235178
0.0001202327
0.00013177419
0.00013506737
0.00012730501
0.00011097578
7.5255034e-05
4.0813489e-05
1.2977353e-05
9.1640846e-06
3.2072007e-05
5.477717e-05
7.4025129e-05
8.7070725e-05
9.342418e-05
9.5541617e-05
9.5036487e-05
9.0289475e-05
8.4033172e-05
8.1533931e-05
8.8694692e-05
0.00010292028
0.00012087
0.00013483544
0.00013894835
0.00013335196
0.0001140379
8.0962918e-05
3.9859224e-05
1.1825363e-05
7.6811428e-06
3.5198356e-05
6.7183067e-05
9.3928278e-05
0.0001097453
0.00011578911
0.00011503265
0.00011046189
0.00010500703
0.00010150056
9.8561746e-05
9.3567108e-05
9.0042562e-05
9.0167756e-05
0.00010393704
0.00012181002
0.00013492588
0.00013897656
0.00013208588
0.00011063785
7.3599138e-05
3.2543683e-05
1.0145244e-05
2.6186474e-05
6.7336302e-05
0.00010441855
0.00012548099
0.00013319647
0.00013184272
0.0001243531
0.00011262834
9.8833644e-05
8.6550341e-05
8.0249078e-05
8.0315895e-05
8.2571126e-05
8.3455945e-05
9.0040935e-05
0.00010453678
0.00012279264
0.00013409783
0.00013610663
0.00012536538
9.8680237e-05
5.7040032e-05
2.6307836e-05
8.690012e-06
1.6198408e-05
6.3283891e-05
0.00010738011
0.00013443936
0.0001459177
0.00014636302
0.00013970325
0.00012792602
0.00011288825
9.5891109e-05
7.8396701e-05
6.3017355e-05
5.4339941e-05
5.5279761e-05
6.1941764e-05
7.1396276e-05
8.5410112e-05
0.0001051498
0.00012279719
0.00013197998
0.00012939953
0.00011241659
7.7231978e-05
4.14868e-05
1.5203304e-05
4.3407178e-05
9.3960441e-05
0.00013219171
0.00015138261
0.00015572472
0.00014979307
0.0001378281
0.00012102599
0.00010175156
8.1529739e-05
6.3099387e-05
4.8694376e-05
3.8974399e-05
3.4719171e-05
3.7928011e-05
4.7711121e-05
6.3363577e-05
8.4905764e-05
0.00010719122
0.00012280271
0.00012683377
0.00011758578
8.9671486e-05
5.343494e-05
2.3745158e-05
1.4222612e-05
8.9969799e-06
6.0536406e-05
0.00011783883
0.00014879063
0.00015966168
0.000156127
0.00014326001
0.00012585781
0.00010527198
8.2235465e-05
5.904939e-05
4.0767151e-05
2.8978549e-05
2.2792229e-05
2.0709677e-05
2.2368671e-05
2.9089588e-05
4.2617487e-05
6.4307982e-05
9.004766e-05
0.00011096397
0.00012035236
0.00011727069
9.5641627e-05
6.0618138e-05
2.838587e-05
2.5794514e-05
2.0648945e-05
8.6622377e-05
0.00013334423
0.00015579143
0.00015854571
0.00014667049
0.000127956
0.00011032289
8.8571419e-05
6.2988356e-05
3.8742385e-05
2.2818214e-05
1.3859146e-05
1.0202681e-05
9.9793636e-06
1.2395411e-05
1.7690634e-05
2.7971239e-05
4.6870271e-05
7.3735899e-05
9.8359515e-05
0.00011163663
0.0001140587
9.721223e-05
6.2974814e-05
3.2194039e-05
2.8506421e-05
1.4310026e-05
0.00010146701
0.00014081519
0.00015555643
0.00014843305
0.000129639
0.00011201883
9.8282587e-05
7.5012413e-05
4.5489406e-05
2.277456e-05
1.0901353e-05
6.7022868e-06
6.6025839e-06
6.5194092e-06
6.934343e-06
1.1061637e-05
1.9249594e-05
3.4830268e-05
6.0635775e-05
8.6738042e-05
0.00010283673
0.00011031144
9.5644742e-05
6.0925177e-05
3.6001892e-05
3.2028637e-05
8.9297693e-06
3.4377569e-05
0.00010854998
0.00014149151
0.00014721259
0.00013057135
0.00011049209
0.00010463922
9.084829e-05
6.1957679e-05
3.0315104e-05
1.3378445e-05
7.229714e-06
7.1395508e-06
5.2300079e-06
5.4027978e-06
6.1139979e-06
7.6254294e-06
1.4636954e-05
2.7893649e-05
5.1790467e-05
7.766676e-05
9.6898772e-05
0.00010659234
8.9350377e-05
5.655836e-05
4.1189635e-05
3.670337e-05
1.8712857e-05
5.6292802e-05
0.00010817991
0.00013561768
0.00013137086
0.00010979698
9.9281226e-05
0.00010487072
8.4729923e-05
5.0052826e-05
2.3729978e-05
1.1864646e-05
7.2566105e-06
7.8726803e-06
3.1343197e-06
5.3153248e-06
6.8385005e-06
6.7667121e-06
1.3043017e-05
2.521978e-05
4.7669435e-05
7.318704e-05
9.4373955e-05
0.00010081704
7.6752885e-05
5.5494796e-05
4.7576836e-05
3.9434858e-05
1.9925275e-05
4.1536208e-05
0.00010169123
0.00012383732
0.00011071735
9.3168513e-05
9.9551736e-05
0.00010554998
8.0703813e-05
4.4741435e-05
2.6079659e-05
1.3643859e-05
7.0134161e-06
7.6314625e-06
7.1668396e-06
7.7433192e-06
7.0313977e-06
7.3942894e-06
1.4242777e-05
2.6599005e-05
4.7493223e-05
7.3358041e-05
9.1819978e-05
8.9623442e-05
6.7052623e-05
6.0621953e-05
5.4599629e-05
4.1896993e-05
1.9321147e-05
4.1730624e-05
9.0345023e-05
0.0001084103
9.0014707e-05
8.2740352e-05
0.00010368564
0.00010694693
7.6192792e-05
5.1112423e-05
3.355825e-05
1.8577356e-05
9.4329825e-06
6.4068242e-06
7.0012116e-06
6.639551e-06
6.9570425e-06
1.0754692e-05
1.8193352e-05
3.0941744e-05
5.2354984e-05
7.5785419e-05
8.6811583e-05
7.8374152e-05
6.9348428e-05
6.86612e-05
6.0669443e-05
4.3722862e-05
1.4452624e-05
3.315916e-05
7.5910496e-05
9.0641562e-05
7.4691485e-05
7.8282198e-05
0.00010686278
0.00010731212
8.2096019e-05
6.4172484e-05
4.5504088e-05
2.830033e-05
1.6369229e-05
1.0239949e-05
9.3804987e-06
9.840306e-06
1.2019912e-05
1.6531489e-05
2.4391643e-05
3.8488011e-05
5.936148e-05
7.6106282e-05
7.9516951e-05
7.5433914e-05
7.7206677e-05
7.6476196e-05
6.0891429e-05
3.4983829e-05
2.1360614e-05
6.1096535e-05
7.2671108e-05
6.1838507e-05
7.4952426e-05
0.00010754747
0.00010735694
9.4054688e-05
7.8485387e-05
6.144703e-05
4.4981822e-05
3.0125431e-05
1.9269297e-05
1.4858508e-05
1.5728743e-05
1.8727943e-05
2.4405249e-05
3.434613e-05
4.9608692e-05
6.627283e-05
7.5842241e-05
7.920052e-05
8.4833296e-05
8.8427899e-05
8.053525e-05
4.7879443e-05
2.706472e-05
4.6860274e-05
5.624059e-05
5.0498722e-05
7.0069463e-05
0.00010698172
0.00011295123
0.00010681626
9.2076949e-05
7.7558676e-05
6.5938395e-05
5.3967074e-05
4.0318646e-05
3.1318204e-05
2.9249661e-05
3.2704057e-05
4.0068441e-05
5.1119898e-05
6.4177154e-05
7.5689208e-05
8.3947061e-05
9.2505084e-05
9.7480471e-05
9.4310258e-05
7.3889028e-05
3.7790649e-05
2.0145289e-05
3.4493983e-05
4.2550669e-05
3.9820771e-05
6.2098924e-05
0.00010367792
0.0001175317
0.00011518965
0.00010409208
9.064374e-05
8.359683e-05
7.7845971e-05
7.0651099e-05
6.1993112e-05
5.6869165e-05
5.7957351e-05
6.45226e-05
7.3371797e-05
8.330313e-05
9.2934593e-05
0.00010143989
0.00010649093
0.00010501498
8.9947505e-05
5.6069772e-05
2.6361187e-05
7.2792887e-06
1.0413598e-05
3.1706305e-05
2.9732872e-05
5.1183982e-05
9.501282e-05
0.00011696817
0.00012199263
0.00011444123
9.9267852e-05
9.1494503e-05
9.4189477e-05
9.4337706e-05
9.0575739e-05
8.8670045e-05
8.9132591e-05
9.2310424e-05
9.9471225e-05
0.00010623443
0.00011032924
0.00011350266
0.0001102746
9.54025e-05
6.3007311e-05
2.4168205e-05
1.0477872e-05
2.5237892e-05
2.1335209e-05
3.793332e-05
7.9672615e-05
0.00010869549
0.00012287145
0.00012132344
0.00010903031
9.4347975e-05
9.0717275e-05
9.8697838e-05
0.00010642628
0.00010651181
0.00010804693
0.00011012315
0.00011069922
0.00011479281
0.00011454758
0.00010911849
9.500673e-05
6.8804215e-05
3.5325826e-05
2.3868723e-05
1.4252108e-05
2.4164047e-05
5.6436793e-05
8.9018223e-05
0.00011391537
0.00012137432
0.00011590769
0.00010211445
8.9977075e-05
8.3633552e-05
9.1981509e-05
0.00010311182
0.00010978124
0.00011208314
0.00011123019
0.00010842858
0.00010057802
8.6364614e-05
6.3264798e-05
3.4670388e-05
2.1299142e-05
8.8762616e-06
1.209351e-05
3.1345577e-05
5.7368258e-05
9.1149737e-05
0.00010889685
0.0001143095
0.00010669424
9.3740209e-05
8.1610953e-05
7.3732621e-05
7.3441302e-05
7.7347166e-05
8.1534085e-05
8.1097734e-05
7.5629421e-05
6.4605085e-05
4.8088348e-05
2.9079853e-05
1.8950111e-05
8.9113521e-06
1.0560636e-05
2.3493599e-05
5.4157809e-05
7.8961503e-05
9.5100036e-05
0.00010005659
9.4540237e-05
8.3536467e-05
7.196178e-05
6.2661011e-05
5.556871e-05
5.0837961e-05
4.6685647e-05
4.1268076e-05
3.3771052e-05
2.3906386e-05
1.4090899e-05
8.3455233e-06
9.3250756e-06
2.1156741e-05
3.7690511e-05
5.0681589e-05
7.0122098e-05
7.7159754e-05
7.6180098e-05
6.8334081e-05
5.766362e-05
4.7730923e-05
3.9278966e-05
3.2472293e-05
2.6763902e-05
1.9857341e-05
1.331732e-05
1.389735e-05
1.1677217e-05
3.0496375e-05
4.0475709e-05
5.1007385e-05
5.2793692e-05
4.9313683e-05
4.2814848e-05
3.6046502e-05
3.1175164e-05
2.3835976e-05
7.9835335e-06
8.6547179e-06
1.8290541e-05
1.9988469e-05
2.0057825e-05
1.5382039e-05
1.1907851e-05
2.6466461e-05
4.0929032e-05
4.7520457e-05
4.8252051e-05
4.5455108e-05
3.7626063e-05
2.5937521e-05
1.6686029e-05
2.686234e-05
5.1520758e-05
6.8070927e-05
8.5043115e-05
0.00010194286
0.00011563109
0.00012425518
0.00012640068
0.0001187779
0.00010256008
7.2521141e-05
5.2273317e-05
1.4114633e-05
8.7573877e-06
1.1370417e-05
3.4272167e-05
4.675436e-05
6.0961465e-05
7.6335955e-05
9.248551e-05
0.00010926173
0.00012596359
0.00014116847
0.00015253413
0.00015732709
0.00015429958
0.00014136902
0.00011747761
8.1728415e-05
3.1761322e-05
1.8380239e-05
1.2310009e-05
2.3488865e-05
3.5276555e-05
4.8658017e-05
6.1222289e-05
7.1876926e-05
8.0587666e-05
8.9088551e-05
0.00010124678
0.00011840002
0.00013854255
0.00015695185
0.0001686184
0.00017135024
0.00016100979
0.00013863515
9.0052767e-05
4.6413383e-05
1.2610298e-05
1.0013107e-05
2.950796e-05
5.2259668e-05
7.6008183e-05
9.5951357e-05
0.00010969842
0.00011688954
0.00011884016
0.00011642301
0.00011110187
0.00010847335
0.00011650362
0.00013499036
0.00015533158
0.00017127343
0.00017625211
0.00016881107
0.00014129216
9.6535154e-05
4.3581675e-05
1.1688011e-05
8.0013984e-06
3.6727336e-05
7.2405025e-05
0.000107528
0.0001335763
0.00014880023
0.00015443952
0.00015291642
0.00014700183
0.00014010477
0.00013337329
0.00012529673
0.00011733424
0.00011661704
0.00013299542
0.00015438302
0.00017126169
0.00017712806
0.00016707234
0.00013633463
8.5914504e-05
3.5726102e-05
1.1597668e-05
2.8328693e-05
7.5150316e-05
0.00012322338
0.00015624859
0.00017356424
0.0001784949
0.00017455274
0.00016445482
0.00015043614
0.0001349626
0.0001218245
0.00011491366
0.00011233285
0.0001091277
0.00011518103
0.00013164331
0.00015499182
0.00017149398
0.0001745427
0.00015797611
0.00011965039
6.5704669e-05
2.8702007e-05
9.9981229e-06
1.7965547e-05
7.2968583e-05
0.00012976592
0.00016870673
0.00018860469
0.00019398742
0.00018928013
0.00017774418
0.00016140879
0.00014195097
0.00012174332
0.00010316598
8.9669521e-05
8.5048021e-05
8.7072693e-05
9.3718669e-05
0.00010941228
0.00013302507
0.0001574822
0.00017102206
0.00016610553
0.00013973364
9.1485031e-05
4.5289367e-05
1.8226462e-05
4.9554811e-05
0.00011393179
0.00016515609
0.00019267895
0.00020144321
0.00019660293
0.00018291181
0.00016337497
0.00013973533
0.00011442574
9.1653029e-05
7.4199591e-05
6.2519777e-05
5.6560642e-05
5.8101322e-05
6.653134e-05
8.2322594e-05
0.00010912627
0.00013987515
0.00016159747
0.00016571928
0.00014909141
0.00010827917
5.6818652e-05
2.8014838e-05
1.7712624e-05
9.1359619e-06
7.1640769e-05
0.00014580026
0.00018769354
0.00020322209
0.00020002171
0.00018471282
0.00016262855
0.00013596736
0.00010684046
7.8384975e-05
5.5498966e-05
4.0229511e-05
3.228167e-05
3.0375973e-05
3.3327039e-05
4.1725405e-05
5.7051958e-05
8.3055103e-05
0.00011871402
0.00014852823
0.00016022838
0.0001512115
0.00011740856
6.4550622e-05
3.4136147e-05
3.0568699e-05
2.0718799e-05
0.00010551921
0.00016717453
0.00019694374
0.00020086915
0.00018558799
0.00016265096
0.00013691111
0.00010815036
7.767568e-05
4.8773106e-05
2.8380495e-05
1.6731858e-05
1.2159649e-05
1.212169e-05
1.6206291e-05
2.4243719e-05
3.7938262e-05
6.1969541e-05
9.8646333e-05
0.0001339626
0.00015170828
0.00014873315
0.00012061712
6.8624528e-05
4.1079009e-05
3.4358692e-05
1.5843065e-05
0.00012669945
0.00017792027
0.00019704943
0.0001880519
0.00016341462
0.00014018514
0.00011589705
8.8571027e-05
5.5096619e-05
2.7649436e-05
1.2375394e-05
7.9398526e-06
7.7369428e-06
7.5189666e-06
8.4604033e-06
1.4143767e-05
2.5752182e-05
4.7322083e-05
8.3244251e-05
0.00012089864
0.00014210003
0.00014398831
0.00011843895
6.9892411e-05
4.9302897e-05
4.1062035e-05
1.0264961e-05
4.0541198e-05
0.00013849889
0.0001807163
0.00018812203
0.00016764242
0.00014236367
0.00012927163
0.0001038546
7.4239197e-05
3.8610201e-05
1.6882204e-05
8.5339883e-06
8.7169997e-06
6.1876489e-06
6.0940115e-06
6.4376112e-06
9.2465683e-06
1.9112297e-05
3.8801346e-05
7.3569986e-05
0.0001116464
0.00013424729
0.00013818671
0.00011043751
6.9880972e-05
5.9652243e-05
4.968941e-05
2.0437468e-05
6.7441456e-05
0.00014016722
0.0001758531
0.00017182538
0.00014595027
0.00012939571
0.00012585773
9.9234317e-05
6.3732624e-05
3.362863e-05
1.5837083e-05
8.5590602e-06
8.9970565e-06
3.2096325e-06
5.0828098e-06
7.0833645e-06
7.9703709e-06
1.6721823e-05
3.5662574e-05
7.0315676e-05
0.00010721383
0.00012890551
0.0001296453
9.9263793e-05
7.3639351e-05
7.0935822e-05
5.1072105e-05
2.1280611e-05
4.786668e-05
0.00013439226
0.00016441152
0.00015158236
0.00012633293
0.00012715889
0.00012615089
9.9003992e-05
6.4106269e-05
3.8222343e-05
1.810911e-05
8.6311372e-06
8.2103169e-06
7.3623567e-06
6.6828641e-06
7.3278671e-06
8.683436e-06
1.8575274e-05
3.883245e-05
7.288744e-05
0.00010723061
0.00012500317
0.00011833895
9.086916e-05
8.3234626e-05
8.1241147e-05
5.595525e-05
2.0479944e-05
4.6571364e-05
0.00012163616
0.00014893472
0.00013121252
0.00011317065
0.00013156675
0.00012959032
0.00010259179
7.4686187e-05
4.7676016e-05
2.5253194e-05
1.1834263e-05
8.4010627e-06
8.2076527e-06
7.6067236e-06
8.0964114e-06
1.329088e-05
2.5588022e-05
4.7991301e-05
8.0453231e-05
0.00010755498
0.0001160775
0.00010288179
9.2497546e-05
9.6488973e-05
8.5989567e-05
5.7180931e-05
1.6806273e-05
3.2663339e-05
0.00010356923
0.00012984627
0.00011282894
0.0001070341
0.00013516281
0.00013530709
0.00011347946
8.8866847e-05
6.2380275e-05
3.8837588e-05
2.1333388e-05
1.3226465e-05
1.2187565e-05
1.2385611e-05
1.5465825e-05
2.3050262e-05
3.737814e-05
6.092468e-05
8.7410828e-05
0.00010465267
0.00010536415
9.9468009e-05
0.00010453612
0.00010774677
8.1681179e-05
4.0819109e-05
2.1688313e-05
8.3813177e-05
0.00010839996
9.6225725e-05
0.0001009956
0.00013603805
0.00014210771
0.00012641641
0.00010460801
8.1153501e-05
6.0171083e-05
3.9811801e-05
2.5071411e-05
2.0466506e-05
2.2206781e-05
2.6969091e-05
3.645949e-05
5.195544e-05
7.2364902e-05
9.0800605e-05
9.9939413e-05
0.00010270028
0.0001111041
0.00011980366
0.00010965356
6.1271556e-05
3.0418197e-05
6.2508281e-05
8.5953017e-05
7.9202021e-05
9.1744963e-05
0.00013407974
0.00014903928
0.00013840971
0.00012017745
9.9783109e-05
8.4303264e-05
6.9380316e-05
5.175907e-05
4.084775e-05
3.9713569e-05
4.4996173e-05
5.4774106e-05
6.867043e-05
8.3639571e-05
9.6616755e-05
0.00010538353
0.00011732221
0.00012720337
0.00012578347
9.8722738e-05
4.6827051e-05
2.1117252e-05
4.2545103e-05
6.3880536e-05
6.142649e-05
7.825752e-05
0.00012592078
0.00015299473
0.00015027407
0.00013410708
0.00011540662
0.00010375364
9.4440678e-05
8.7140683e-05
7.6589361e-05
7.1182885e-05
7.3163391e-05
8.045916e-05
9.0762948e-05
0.00010255565
0.00011459559
0.00012516128
0.00013479871
0.000135368
0.00011671984
7.1660654e-05
3.2508852e-05
8.1625975e-06
1.3158931e-05
4.3697029e-05
4.377423e-05
6.0936619e-05
0.00011094851
0.00014896743
0.00015728293
0.000145853
0.00012766099
0.00011678182
0.00011601428
0.00011315748
0.00010787449
0.00010645576
0.00010763395
0.00011219293
0.00011979786
0.00012858397
0.00013589071
0.00014083065
0.00013848668
0.00012016565
7.862039e-05
2.8934026e-05
1.216842e-05
2.8444578e-05
2.8644999e-05
4.2025567e-05
8.7242896e-05
0.00013430026
0.00015695546
0.00015469234
0.00014000623
0.00012376903
0.00011698911
0.00012444035
0.00012862233
0.00012917754
0.00013105547
0.00013424494
0.00013807153
0.00014132927
0.00014121482
0.00013469876
0.00011703887
8.3760446e-05
4.158124e-05
2.6923282e-05
1.7874051e-05
2.5401877e-05
5.8349318e-05
0.00010571792
0.00014443321
0.00015508836
0.00015001868
0.00013404577
0.00011930973
0.00011246897
0.00011795794
0.00012952094
0.00013495804
0.00013588012
0.00013525262
0.00013151513
0.00012221081
0.00010441388
7.5489631e-05
3.9575373e-05
2.3448267e-05
9.6279918e-06
1.4359158e-05
3.1305503e-05
6.478384e-05
0.00011385888
0.0001389384
0.00014855214
0.00014203584
0.00012700046
0.00011016315
9.860335e-05
9.5056002e-05
9.6179501e-05
9.6645072e-05
9.3277018e-05
8.5211716e-05
7.1650056e-05
5.2528788e-05
3.1104069e-05
2.1725752e-05
9.5485762e-06
1.11682e-05
2.5597347e-05
6.5508301e-05
9.9668345e-05
0.00012207634
0.00013208454
0.00012949472
0.00011869683
0.00010355467
8.8572705e-05
7.6238615e-05
6.639547e-05
5.7305904e-05
4.793382e-05
3.7961052e-05
2.6989712e-05
1.49247e-05
9.4431974e-06
9.9482362e-06
2.4498033e-05
4.5310895e-05
6.312355e-05
8.9319003e-05
0.00010166248
0.00010407703
9.6923233e-05
8.4715015e-05
7.0389212e-05
5.6345674e-05
4.4360017e-05
3.4525376e-05
2.4387363e-05
1.6124612e-05
1.5141741e-05
1.2998254e-05
3.4526793e-05
4.9574125e-05
6.6094095e-05
6.9638077e-05
6.6277025e-05
5.7485836e-05
4.5916944e-05
3.8162721e-05
2.7665014e-05
1.0221194e-05
9.363008e-06
1.9353708e-05
2.1119791e-05
2.1435699e-05
1.8434226e-05
1.2721841e-05
2.8000317e-05
4.4734393e-05
5.4809238e-05
5.6104278e-05
5.2772463e-05
4.2484986e-05
2.6920309e-05
1.7304882e-05
3.0359227e-05
6.8091528e-05
9.1265907e-05
0.00011289015
0.0001328566
0.00014732247
0.00015488234
0.00015459464
0.00014277896
0.00012143264
8.3986618e-05
5.8624783e-05
1.5276936e-05
9.0900819e-06
1.3411717e-05
4.7805116e-05
6.9535661e-05
9.1357618e-05
0.00011195658
0.00013093415
0.00014888067
0.00016514253
0.00017889175
0.0001881471
0.00019012352
0.00018395799
0.00016630871
0.0001367236
9.2190604e-05
3.468654e-05
1.8766601e-05
1.5835254e-05
3.1943733e-05
4.9021403e-05
6.7479499e-05
8.4426323e-05
9.8805452e-05
0.00011108063
0.00012242039
0.00013653509
0.00015465194
0.00017473129
0.00019212299
0.00020218611
0.00020262575
0.00018868822
0.00015945837
0.0001005433
4.9287353e-05
1.3093864e-05
1.2620575e-05
2.807152e-05
4.7690783e-05
7.1981534e-05
9.6475487e-05
0.00011686605
0.00013029294
0.00013717034
0.00013865955
0.00013577017
0.00013507536
0.00014542995
0.00016466992
0.00018631697
0.0002029362
0.00020718107
0.00019644375
0.00016051681
0.00010496413
4.4969196e-05
1.2687211e-05
8.3966058e-06
3.2541934e-05
6.2812309e-05
0.0001019362
0.00013884884
0.00016475137
0.00017799743
0.0001813315
0.00017747771
0.00017055455
0.0001629703
0.00015286798
0.00014358907
0.00014377806
0.00016014677
0.00018290015
0.00020134223
0.00020714115
0.00019261271
0.00015191392
9.1437811e-05
3.5718546e-05
1.2551847e-05
2.7252218e-05
7.1755802e-05
0.00012693679
0.00017173052
0.00019820016
0.00020848891
0.00020738497
0.00019923606
0.0001864324
0.00017112057
0.00015661736
0.00014632857
0.00013892799
0.00013305412
0.00013768738
0.00015613429
0.00018128077
0.00020030354
0.00020268899
0.00017942041
0.00013096342
6.4749207e-05
2.9395477e-05
1.2100871e-05
1.863164e-05
7.6280593e-05
0.00014209625
0.00019112899
0.00021773217
0.00022620459
0.00022209528
0.00020984442
0.00019218773
0.000171511
0.00015090175
0.00013299253
0.00011981293
0.00011287326
0.00011178313
0.0001147478
0.000128965
0.0001556483
0.00018356269
0.00019902902
0.00019086891
0.00015627692
9.2096653e-05
4.411478e-05
2.1022571e-05
5.3338591e-05
0.00012737056
0.00018857362
0.00022297834
0.00023463374
0.00022923444
0.00021304087
0.00018979783
0.00016190494
0.00013358208
0.00010926493
9.1564241e-05
8.0992626e-05
7.6913912e-05
7.9326402e-05
8.6388599e-05
9.9187358e-05
0.00012590847
0.00016138974
0.00018782471
0.00019182334
0.00016921076
0.00011213844
5.6662075e-05
3.5284015e-05
2.0762505e-05
9.3783004e-06
8.0241102e-05
0.00016729564
0.00021796473
0.00023717917
0.0002335945
0.00021448143
0.00018709078
0.00015428468
0.00012022608
8.9139902e-05
6.4474634e-05
4.7996611e-05
3.9692415e-05
3.9392351e-05
4.5163966e-05
5.609784e-05
7.1461137e-05
9.7480144e-05
0.00013707518
0.00017286837
0.00018663396
0.0001734262
0.00012434542
6.731846e-05
4.5072786e-05
3.6379134e-05
2.1382212e-05
0.00012200839
0.00019517733
0.00023057734
0.00023538111
0.00021726523
0.0001886523
0.00015469874
0.00012028972
8.6146576e-05
5.4959885e-05
3.2353757e-05
1.9468796e-05
1.4417052e-05
1.4922749e-05
2.0685132e-05
3.2232376e-05
4.8620035e-05
7.4083232e-05
0.00011487068
0.0001570683
0.00017845317
0.00017200463
0.00012969293
7.5719463e-05
5.674746e-05
4.2752523e-05
1.7361317e-05
0.00014911853
0.0002098017
0.0002325186
0.00022197634
0.00019268825
0.00016261967
0.00012990631
9.8258476e-05
6.1952336e-05
3.2003237e-05