/*--------------------------------*- C++ -*----------------------------------*\
| =========                 |                                                 |
| \\      /  F ield         | OpenFOAM: The Open Source CFD Toolbox           |
|  \\    /   O peration     | Version:  2406                                  |
|   \\  /    A nd           | Website:  www.openfoam.com                      |
|    \\/     M anipulation  |                                                 |
\*---------------------------------------------------------------------------*/
FoamFile
{
    version     2.0;
    format      ascii;
    arch        "LSB;label=32;scalar=64";
    class       volScalarField;
    location    "650";
    object      p;
}
// * * * * * * * * * * * * * * * * * * * * * * * * * * * * * * * * * * * * * //

dimensions      [0 2 -2 0 0 0 0];

internalField   nonuniform List<scalar> 
150387
(
0.0033201684
0.0037397299
0.0022553429
0.0016386443
0.0012928794
0.0010973421
0.0022525387
0.0021781977
0.0055876352
0.0043131117
0.0025919386
0.00064457681
-0.00077195156
-0.0018353467
-0.0024006072
-0.0025504183
-0.002311215
-0.0015424486
-0.00060796272
0.00012439228
0.00085031867
0.0048506769
0.0024445842
-0.00046463939
-0.002971345
-0.0050155898
-0.0064293228
-0.0072821375
-0.0075519117
-0.0073324194
-0.0066875496
-0.005643695
-0.0043816429
-0.0029383162
-0.0015667019
2.5144203e-06
0.00151953
0.0033076847
0.0027373203
5.5080591e-05
-0.0033764801
-0.006660655
-0.0094749229
-0.011571698
-0.01291302
-0.013596
-0.013656862
-0.013149376
-0.012141219
-0.010693143
-0.0089470893
-0.0069801558
-0.0049419626
-0.0028682555
-0.0011306654
0.00037704649
0.0036124645
0.0026925779
-0.00050379201
-0.0042690815
-0.0081769037
-0.01178482
-0.014879672
-0.0172588
-0.018898166
-0.019795727
-0.019931023
-0.019329803
-0.018079298
-0.016280218
-0.014087973
-0.01163079
-0.0090845884
-0.006513075
-0.0040465874
-0.0018244562
-3.9301284e-05
0.0026501981
-0.00010850096
-0.0038951949
-0.0079368409
-0.011925764
-0.01575771
-0.019274644
-0.022277308
-0.024548613
-0.025957426
-0.026425345
-0.025928482
-0.024548261
-0.022425162
-0.019768794
-0.016772785
-0.01365442
-0.010533586
-0.0075446647
-0.0045853626
-0.0020225347
0.00045511282
0.0033030552
0.00072922742
-0.0028435945
-0.0068939466
-0.011040125
-0.015123544
-0.018979423
-0.022590069
-0.026052709
-0.029213091
-0.031589453
-0.032833742
-0.032747839
-0.031394875
-0.028997218
-0.025850395
-0.022261406
-0.01851699
-0.014800684
-0.011260584
-0.0078250408
-0.0045243172
-0.0012013432
0.0001760501
0.0043502101
0.0017031701
-0.0015125994
-0.005505376
-0.0098362477
-0.014288383
-0.018700795
-0.02295719
-0.026961779
-0.030564088
-0.03382608
-0.036861545
-0.038996272
-0.039636422
-0.038566303
-0.035977705
-0.03230225
-0.028013634
-0.023542518
-0.019157585
-0.015038661
-0.011145787
-0.007391549
-0.003655749
-0.00064572458
0.002538719
-4.509872e-05
-0.0037857987
-0.0081464894
-0.012858368
-0.017737112
-0.022668516
-0.027565064
-0.032313504
-0.036750478
-0.040678072
-0.043753267
-0.046146087
-0.047100112
-0.046159701
-0.043316429
-0.039006683
-0.033887069
-0.028566354
-0.023425203
-0.018689995
-0.014328668
-0.010164212
-0.0059650921
-0.0017443452
0.0012567512
0.001336752
-0.001868612
-0.0060473037
-0.01076702
-0.015883594
-0.021251764
-0.026800623
-0.032472098
-0.038153671
-0.043704467
-0.049030567
-0.053638892
-0.056475333
-0.05711472
-0.055374305
-0.051526111
-0.046044999
-0.039758269
-0.033404139
-0.027420922
-0.022036021
-0.017248596
-0.012685914
-0.0080117108
-0.0031206654
0.0008432676
0.0031703908
0.00015658665
-0.0035073342
-0.0081163727
-0.013210507
-0.018739187
-0.024609034
-0.030806416
-0.037288488
-0.043933536
-0.050795098
-0.058152665
-0.065037926
-0.069588865
-0.070639305
-0.067661653
-0.061611341
-0.05380279
-0.045581471
-0.037846482
-0.030926126
-0.024937371
-0.019842846
-0.014862854
-0.0096778402
-0.0044814193
-0.00049178189
0.0020482092
-0.001038414
-0.004969081
-0.0099307592
-0.01536951
-0.021279002
-0.027601127
-0.034375638
-0.04151993
-0.048935252
-0.057174417
-0.066987349
-0.075491936
-0.079777029
-0.080931243
-0.07929258
-0.07225376
-0.061890198
-0.051051562
-0.041566984
-0.033694856
-0.027410617
-0.022011511
-0.016589032
-0.010947137
-0.0054303912
-0.0012510936
0.0012308639
0.0015598493
-0.0018628544
-0.0061023774
-0.011376597
-0.017117925
-0.023336293
-0.029996292
-0.037141655
-0.044579464
-0.052321676
-0.061840948
-0.07369571
-0.081388651
-0.08379292
-0.083321746
-0.083161886
-0.078263756
-0.067808762
-0.055037429
-0.043994034
-0.035777291
-0.02936267
-0.023538329
-0.017654989
-0.01170559
-0.0061423925
-0.0018694197
0.0012978035
0.0013603848
-0.0020490729
-0.0067779197
-0.012353869
-0.018337627
-0.024761309
-0.031573869
-0.038756474
-0.045929728
-0.053522005
-0.064060154
-0.076681243
-0.083681324
-0.085122108
-0.082471192
-0.082878426
-0.079868674
-0.070085005
-0.056276478
-0.045160824
-0.037041373
-0.030464963
-0.024171464
-0.017943167
-0.011862931
-0.006272508
-0.0020580135
0.00061799597
0.0015740301
-0.0019807185
-0.0069011667
-0.01280073
-0.018929085
-0.025425976
-0.03214038
-0.038912944
-0.045212629
-0.05232926
-0.063331963
-0.074952933
-0.081598943
-0.08468367
-0.082419175
-0.082452481
-0.079353606
-0.06858855
-0.055201825
-0.04494653
-0.037197307
-0.030436399
-0.023821441
-0.017473605
-0.011423607
-0.006156781
-0.0019199505
0.00055761456
0.0026762247
-0.0012857933
-0.0064550393
-0.012631937
-0.018822677
-0.0252489
-0.031593778
-0.037540293
-0.042704713
-0.049486446
-0.059747163
-0.070468435
-0.077993974
-0.080795176
-0.080895479
-0.079877002
-0.07501477
-0.063970342
-0.052348815
-0.043406941
-0.036065453
-0.029214014
-0.022575845
-0.016314579
-0.01045956
-0.0055310441
-0.0017630075
0.00046617258
0.0038682852
-0.00019501531
-0.0054125816
-0.011810289
-0.017979549
-0.024201794
-0.029939925
-0.034762727
-0.039109751
-0.045782478
-0.053957331
-0.062522413
-0.069968924
-0.074318453
-0.074977386
-0.072734435
-0.066648082
-0.057178131
-0.048099319
-0.040520621
-0.033632648
-0.026977533
-0.020585785
-0.014599758
-0.0091089063
-0.0045930788
-0.0016830758
0.00036910231
0.0047855788
0.0014621789
-0.0037815637
-0.010256827
-0.016372172
-0.022294851
-0.02726754
-0.031034996
-0.035280273
-0.041220643
-0.047562445
-0.053592555
-0.058628278
-0.061999112
-0.063080048
-0.061325303
-0.05638947
-0.049653946
-0.042903854
-0.036510195
-0.030212858
-0.024017293
-0.018071869
-0.012516476
-0.0075265324
-0.0034788448
-0.00095584957
0.0034186063
-0.0014355751
-0.0079394245
-0.013981547
-0.019553556
-0.023768493
-0.026887192
-0.031110816
-0.036197839
-0.041363538
-0.045920835
-0.049265051
-0.051082617
-0.051292497
-0.049889364
-0.046850318
-0.042357599
-0.037249539
-0.03183414
-0.026230328
-0.020643893
-0.015240352
-0.010197755
-0.0057745192
-0.0022260052
-0.00019922147
0.0052503418
0.0015077197
-0.0048395336
-0.010755098
-0.016005235
-0.019667655
-0.02258375
-0.026470494
-0.030836767
-0.035191805
-0.039003329
-0.041745644
-0.04304663
-0.042850569
-0.041367804
-0.038908745
-0.035650818
-0.031586669
-0.026990842
-0.022089937
-0.017127701
-0.012300988
-0.0078109658
-0.0040996508
-0.0012127374
0.00077167891
0.0048897703
-0.0011708503
-0.0068494678
-0.011818974
-0.015204967
-0.018100728
-0.021552535
-0.025297467
-0.02898948
-0.032269978
-0.034742263
-0.036073557
-0.03608054
-0.034814046
-0.032549408
-0.029654636
-0.026230307
-0.022283783
-0.018002055
-0.013626318
-0.009350982
-0.0054439019
-0.0021740725
-0.00023301581
0.0062988489
0.0021414849
-0.0026900299
-0.0073088506
-0.010645797
-0.013439322
-0.01652034
-0.019752461
-0.022892287
-0.025699898
-0.027902795
-0.029263193
-0.029589298
-0.028809104
-0.027002848
-0.024424638
-0.021343345
-0.01786457
-0.014100998
-0.010225716
-0.0064721389
-0.0033629475
-0.0008367386
-0.00045362136
0.0051264779
0.0010070978
-0.002876658
-0.0061107184
-0.0088017162
-0.011535008
-0.014333425
-0.017021717
-0.019430076
-0.021356422
-0.022623591
-0.023095443
-0.022688159
-0.021400481
-0.019335111
-0.016702922
-0.013628
-0.010233226
-0.0068075396
-0.0037947928
-0.0013005022
0.00069581024
0.0034243887
0.00046485465
-0.0020095113
-0.0044365619
-0.0068304175
-0.0092431538
-0.011518676
-0.013561796
-0.015210951
-0.016348549
-0.016852046
-0.016627895
-0.015663376
-0.01400763
-0.011843041
-0.0092385218
-0.0062959113
-0.0036501687
-0.0013034505
3.2459459e-05
0.0025248868
0.0012777052
-0.00089004609
-0.0027302766
-0.0046948923
-0.0065155349
-0.0081705491
-0.0094899422
-0.010396443
-0.010798483
-0.010613244
-0.009850237
-0.0085651287
-0.0069122466
-0.0048276752
-0.0022926484
-0.00059252637
0.0011565538
0.0024484872
0.0015632086
0.00037427292
-0.0011649529
-0.0025712006
-0.0038164345
-0.0047270361
-0.0053043374
-0.0054762265
-0.005120628
-0.0044304582
-0.0033335564
-0.0019713192
-0.00062185458
0.00069964949
-0.00029134948
0.0021627476
0.000960419
-9.1758582e-05
-0.00067157661
-0.0011153935
-0.001413505
-0.0014043291
-0.0010392503
-0.00046127974
0.00067093775
0.0012906073
0.0020462089
0.001571139
0.0012477792
0.0011912235
0.0013159512
0.0024048175
0.0016051701
0.0039857404
0.0041693849
0.003822461
0.0017063784
0.0011325551
0.00081873932
0.00070090772
0.0021608869
0.0023835229
0.0051868625
0.0019094349
0.00050577977
-0.0012311306
-0.0024412093
-0.0035325415
-0.0038416342
-0.0037353693
-0.0032632139
-0.0021788642
-0.0011044341
-0.00018444402
0.001016848
0.0026702175
0.003457442
0.003431851
-0.00032115357
-0.003002713
-0.0052279543
-0.0070125054
-0.0082025203
-0.0088276962
-0.008873982
-0.0084334709
-0.0075927057
-0.0063559587
-0.0050213955
-0.0033468557
-0.002201127
-9.2322039e-06
0.001600324
0.0033225904
0.0009193741
-0.0018577644
-0.005552825
-0.0086001725
-0.011083193
-0.013004206
-0.014247363
-0.014864789
-0.014840272
-0.014226927
-0.013110606
-0.011522607
-0.0096575677
-0.007530044
-0.0053221054
-0.0030956999
-0.001617437
0.00064653839
0.0034402552
0.0013081334
-0.0017590983
-0.0059415857
-0.0098944769
-0.013362336
-0.016290341
-0.018562227
-0.020123842
-0.020920263
-0.020937443
-0.020218718
-0.018874134
-0.016984194
-0.014723315
-0.01217135
-0.0095674269
-0.0068902769
-0.0041321735
-0.0020270755
0.0004149294
0.003658033
0.0013736709
-0.0011360123
-0.0054900481
-0.0095741534
-0.013538293
-0.017228078
-0.02060558
-0.023562068
-0.025791012
-0.027153791
-0.027524005
-0.026872997
-0.025339544
-0.023083827
-0.020334465
-0.01725333
-0.014091531
-0.010883353
-0.0078710665
-0.0045824682
-0.0023695697
0.00045750632
0.0032520622
-9.0410235e-05
-0.0041799585
-0.0084368286
-0.012706481
-0.016829537
-0.020712357
-0.024334528
-0.027727201
-0.030787933
-0.033026894
-0.034127813
-0.033843072
-0.032279906
-0.029667402
-0.026360744
-0.022654717
-0.018867216
-0.0151056
-0.011581812
-0.0080227739
-0.0047457191
-0.00094366936
-0.0018549873
0.0043439211
0.00037832003
-0.0027353432
-0.0070833684
-0.011586725
-0.016131272
-0.020615374
-0.024960305
-0.02910672
-0.03295324
-0.036425033
-0.039284101
-0.04106918
-0.04123576
-0.039741595
-0.036781664
-0.03281331
-0.028326626
-0.023775719
-0.019361597
-0.015314745
-0.011375875
-0.0077582463
-0.0037834138
-0.0011949182
0.0019106248
-0.0010085615
-0.0051959712
-0.0097831682
-0.014652779
-0.019631983
-0.024668481
-0.029710088
-0.034692791
-0.039508851
-0.043961397
-0.047460635
-0.049457682
-0.049683646
-0.047955324
-0.044471824
-0.039656094
-0.034184832
-0.028700816
-0.023512169
-0.018875409
-0.014521073
-0.010481866
-0.0060497103
-0.0021337708
0.00068274471
0.0040375198
0.00054614521
-0.0030862478
-0.0076259479
-0.012486366
-0.017729375
-0.02318514
-0.028861194
-0.034733183
-0.040768614
-0.046917986
-0.053008013
-0.057946634
-0.060612834
-0.060406052
-0.057659964
-0.053022013
-0.046906345
-0.04011981
-0.033493072
-0.027424899
-0.022148581
-0.017394515
-0.012906553
-0.0080474762
-0.0031246126
0.00080397205
0.0028686809
-0.00090899182
-0.0047763261
-0.0097383814
-0.014903623
-0.020535336
-0.026492908
-0.032833827
-0.039568763
-0.046717004
-0.054409162
-0.062529766
-0.069099751
-0.072856686
-0.072786689
-0.069154132
-0.062665289
-0.054573356
-0.045974727
-0.037955098
-0.030928374
-0.025065247
-0.019912966
-0.014974541
-0.0097171461
-0.0043677321
-0.0010438554
0.0015843685
-0.002306781
-0.0063378143
-0.011586409
-0.017016745
-0.022981415
-0.029383156
-0.036289523
-0.043724411
-0.051788487
-0.060982076
-0.071182778
-0.078280979
-0.081184529
-0.081133963
-0.078947939
-0.071718725
-0.061780936
-0.05116676
-0.041683327
-0.03382412
-0.02750927
-0.021891585
-0.01648182
-0.010829225
-0.0051708674
-0.0017455034
0.00087002759
0.001193369
-0.0034235804
-0.0075621543
-0.012999573
-0.018660444
-0.024883373
-0.0316035
-0.038837076
-0.0465958
-0.055142891
-0.065698632
-0.076713618
-0.081124081
-0.08353284
-0.083373363
-0.082601373
-0.076736925
-0.06657491
-0.054612633
-0.044134817
-0.035861672
-0.029208965
-0.023116751
-0.017283216
-0.011365233
-0.0059683553
-0.0023685778
0.0013291661
-0.000140492
-0.0032406467
-0.0083576106
-0.013890897
-0.019736371
-0.026121715
-0.032944322
-0.040148754
-0.047772258
-0.056503775
-0.067906645
-0.078059432
-0.084222244
-0.086173738
-0.083463395
-0.082655137
-0.077982577
-0.067858109
-0.055449692
-0.045080908
-0.036795335
-0.02991632
-0.023439586
-0.017267236
-0.011336226
-0.0056869848
-0.0022168619
0.0006033957
0.0010658463
-0.0035271702
-0.0084749965
-0.01425999
-0.020169606
-0.026573728
-0.03320057
-0.039916524
-0.046833769
-0.055267368
-0.066309651
-0.075528604
-0.081892632
-0.085598258
-0.082930041
-0.081755776
-0.076617928
-0.06582594
-0.053980699
-0.044415093
-0.036473259
-0.029490457
-0.022806102
-0.016561261
-0.010635139
-0.0058660515
-0.0022420759
0.00075899897
0.0020225365
-0.0026006379
-0.0080719838
-0.013957136
-0.01989984
-0.026151587
-0.032306197
-0.038178581
-0.044253565
-0.052274937
-0.061955166
-0.071180342
-0.077487345
-0.079959085
-0.079630127
-0.077746719
-0.071350908
-0.061093531
-0.050968472
-0.042442838
-0.034908207
-0.027962535
-0.021318208
-0.015248305
-0.0094978168
-0.0049747169
-0.0020628624
0.001081465
0.0032806092
-0.0015350727
-0.0070539479
-0.013029859
-0.018893774
-0.024824399
-0.030311931
-0.035126026
-0.040542015
-0.04764134
-0.05551981
-0.063028118
-0.069218736
-0.072830884
-0.072726741
-0.069756778
-0.063373685
-0.054913097
-0.046666573
-0.039189821
-0.032167365
-0.025512306
-0.019185823
-0.013450608
-0.0080819351
-0.0038086238
-0.0016950167
0.0044648463
0.00015623314
-0.0054098149
-0.011371994
-0.017095043
-0.0226687
-0.027342178
-0.031286906
-0.036284182
-0.042276735
-0.048507843
-0.054139658
-0.058532184
-0.061380245
-0.061694057
-0.059316141
-0.054358834
-0.04799804
-0.041413355
-0.034947368
-0.028598875
-0.022482995
-0.016668196
-0.01137889
-0.0065903477
-0.0027019207
-0.0012388784
0.0015928143
-0.0032258872
-0.0090825669
-0.014598447
-0.019704417
-0.023623749
-0.027161103
-0.031620783
-0.036679645
-0.041744483
-0.046142346
-0.049326555
-0.051063384
-0.051063449
-0.049282429
-0.045728887
-0.040992379
-0.035712639
-0.030200731
-0.024614777
-0.019139059
-0.0139
-0.0090892763
-0.0048373236
-0.00171105
1.4724413e-05
0.0048911299
-0.00055157391
-0.0061547389
-0.011385193
-0.016071441
-0.019481408
-0.022789521
-0.026687427
-0.030965378
-0.035165201
-0.038807711
-0.041393303
-0.04265082
-0.042482543
-0.040905566
-0.038111938
-0.034423199
-0.03012381
-0.025457503
-0.020608171
-0.015761846
-0.011116165
-0.0067447385
-0.0036337378
-0.0013181592
0.00079482641
0.0052394512
0.0032755539
-0.002451295
-0.0074909451
-0.011924855
-0.015063905
-0.018199984
-0.021609633
-0.025249856
-0.028767373
-0.031861432
-0.034140274
-0.035325518
-0.035270524
-0.033991841
-0.031663644
-0.028553847
-0.024942111
-0.020941177
-0.016688405
-0.012396854
-0.0083004427
-0.0044579673
-0.0014078041
-0.00034275516
0.0045602573
0.00036361849
-0.003114
-0.007528572
-0.010522491
-0.013488902
-0.016503925
-0.019643654
-0.022618432
-0.025264853
-0.02730931
-0.028528128
-0.028746701
-0.027911271
-0.026076786
-0.023456212
-0.020308789
-0.016788995
-0.013018306
-0.009230743
-0.0053580486
-0.0029524174
-0.00052640699
0.0048153668
3.8499645e-05
-0.0028210222
-0.0060302538
-0.0088116714
-0.011479441
-0.014210085
-0.016736498
-0.018997566
-0.020777804
-0.021955616
-0.022359954
-0.021887744
-0.02054953
-0.018455192
-0.0157724
-0.012657925
-0.0092286025
-0.0057008445
-0.0031342408
-0.0012424129
0.00015419765
0.0036393413
-0.00015637978
-0.0017505085
-0.004326564
-0.0067600543
-0.0091832755
-0.01135151
-0.013309701
-0.014837823
-0.015886949
-0.016335889
-0.016086736
-0.015130341
-0.013465153
-0.011287744
-0.0086753286
-0.005632176
-0.0033266134
-0.001316553
-0.00052610898
0.0029162483
0.0016784875
-0.0012321306
-0.0025206548
-0.004555546
-0.0062413354
-0.0078846017
-0.0091524329
-0.010041073
-0.010440284
-0.010243355
-0.0094576666
-0.0081128185
-0.0063781218
-0.0042862719
-0.0012262095
-0.00056413916
-7.4094299e-05
0.0021348119
0.0016985087
0.00032363021
-0.00099531352
-0.0023813058
-0.0037824861
-0.0046491467
-0.0051876141
-0.0053278805
-0.0047680394
-0.0040944335
-0.0029444003
-0.0020629206
-0.0010376626
0.0017715083
0.0023094145
0.00085690885
-3.8326786e-05
-0.00070502012
-0.0011899784
-0.0015033188
-0.0015189248
-0.0012744695
-0.0004975841
0.00025752723
0.0014016104
-3.1429994e-05
0.0017150886
0.0015010891
0.0011424455
0.0015143287
0.0018404657
0.0029991639
0.0032914369
0.0032871921
0.00096043129
0.00052174297
0.00029403047
0.00025886096
0.0018610216
0.0020961391
0.0037379196
0.00077141712
-0.00038207542
-0.0019300576
-0.0030710226
-0.0041923274
-0.0044292384
-0.004243136
-0.0036772418
-0.0024855599
-0.0013361899
-0.00036251344
0.0010741647
0.0026105902
0.0029313536
0.0026626107
-0.0011230269
-0.0036961936
-0.0058329948
-0.0076064478
-0.0087345829
-0.0092945174
-0.0092640351
-0.0087601314
-0.0078662254
-0.0065790007
-0.0052198948
-0.0034852539
-0.0023839974
3.5920049e-05
0.0016811915
0.0030056478
0.00028536506
-0.0023266147
-0.0060381535
-0.0090162146
-0.011423221
-0.013283317
-0.014477385
-0.015055265
-0.015013774
-0.014404582
-0.013298373
-0.011710602
-0.0098462102
-0.0076860007
-0.0054207276
-0.0030858561
-0.0017192597
0.00080066362
0.0032564622
0.0010054084
-0.0019328173
-0.0062048992
-0.010173574
-0.013578759
-0.016416032
-0.018653579
-0.020227648
-0.021021804
-0.021045481
-0.020336594
-0.019012102
-0.017147287
-0.014916143
-0.012365949
-0.0097348931
-0.0069634252
-0.0040832202
-0.0020469685
0.00051310524
0.0032602161
0.0011200851
-0.0012162576
-0.0058223417
-0.010018988
-0.013998199
-0.017612023
-0.020836556
-0.023585107
-0.02573683
-0.027065191
-0.027452812
-0.026849574
-0.025385783
-0.023204551
-0.020523683
-0.017479025
-0.014320955
-0.011050826
-0.0079652966
-0.0045550115
-0.0025147971
0.00051125509
0.0035426708
-9.0007846e-05
-0.0044273951
-0.0088622336
-0.013235651
-0.017417233
-0.021320893
-0.024929978
-0.028211913
-0.031037727
-0.033105087
-0.034049146
-0.033716667
-0.032217958
-0.029715506
-0.026518324
-0.022886811
-0.019137141
-0.015350076
-0.011782227
-0.008110274
-0.0048677137
-0.0010439304
-0.0023976846
0.0044123184
0.00019841213
-0.0029006307
-0.0074387616
-0.012073903
-0.016697685
-0.02123447
-0.025620422
-0.029814062
-0.033731346
-0.037224423
-0.039904023
-0.041366646
-0.041258661
-0.039678122
-0.036781808
-0.032935737
-0.028555714
-0.024072426
-0.019663275
-0.015586565
-0.011560312
-0.0079506969
-0.0039578132
-0.0016571182
0.0018964458
-0.0010910963
-0.0054328275
-0.01016671
-0.015128157
-0.020157515
-0.025227452
-0.030298282
-0.03533605
-0.040261198
-0.044841045
-0.048364066
-0.050174444
-0.050086936
-0.048104647
-0.044547579
-0.039800355
-0.0344322
-0.029027481
-0.023859691
-0.019189669
-0.014735285
-0.010684206
-0.0061954206
-0.0025767188
0.00012165867
0.0037734129
0.00039415277
-0.0032649043
-0.0079228793
-0.012868486
-0.018159759
-0.023635493
-0.029318544
-0.035196958
-0.041280612
-0.047552028
-0.053730968
-0.058544384
-0.061073851
-0.060674991
-0.057916691
-0.053241453
-0.047154945
-0.040445337
-0.03388402
-0.027824622
-0.022491463
-0.017596032
-0.013065455
-0.0081722897
-0.0034299054
0.00035375316
0.0028192969
-0.0011823003
-0.0050028834
-0.010046614
-0.015245829
-0.020892812
-0.026842219
-0.033161045
-0.039880986
-0.047087905
-0.054904216
-0.062921947
-0.069026715
-0.072432702
-0.072158277
-0.068798957
-0.062743162
-0.054903951
-0.046430601
-0.038459929
-0.03140566
-0.025402529
-0.020056821
-0.015069642
-0.0098751639
-0.0046256197
-0.0017112343
0.0012865254
-0.0027155838
-0.0066444206
-0.011909801
-0.017319441
-0.023266225
-0.029627472
-0.036479926
-0.043904152
-0.052086393
-0.061330095
-0.070990563
-0.077234598
-0.080376485
-0.080344769
-0.077764492
-0.071056707
-0.06184793
-0.051650583
-0.042295257
-0.034338863
-0.027751308
-0.021961852
-0.016523842
-0.01101175
-0.0054851188
-0.0024383428
0.0005659162
0.00078280399
-0.003951062
-0.0079466766
-0.013332722
-0.018930181
-0.025106451
-0.031741764
-0.038903477
-0.046742148
-0.055510171
-0.065921063
-0.076048063
-0.08041771
-0.083459175
-0.083442544
-0.081652985
-0.075700448
-0.066308548
-0.055052222
-0.044771976
-0.036297024
-0.029333929
-0.023117148
-0.01731986
-0.011545627
-0.0063702239
-0.0029136608
0.00097551964
-0.00077430558
-0.0037899629
-0.0088540431
-0.014236145
-0.020000415
-0.026302175
-0.0329956
-0.040166559
-0.048080947
-0.057058006
-0.067955874
-0.077340811
-0.084447755
-0.087206975
-0.084184332
-0.082309942
-0.07706959
-0.067515882
-0.05581845
-0.045576935
-0.037043537
-0.029894574
-0.023396597
-0.017300508
-0.011500042
-0.0060027138
-0.002711764
0.00023024679
0.0004622164
-0.0042378602
-0.0090621233
-0.014638123
-0.020453625
-0.026721109
-0.033195582
-0.040014832
-0.047401139
-0.056121908
-0.06648902
-0.074713285
-0.081944847
-0.086574455
-0.083483983
-0.081075269
-0.075633335
-0.065650819
-0.054358171
-0.044724001
-0.036526883
-0.029398775
-0.022776207
-0.016611115
-0.010777414
-0.0062031857
-0.0025069271
0.00051136494
0.0012215718
-0.0032958555
-0.0087666532
-0.01437726
-0.020216777
-0.026274718
-0.032288979
-0.038395439
-0.045096689
-0.053190264
-0.062400787
-0.070853889
-0.076718278
-0.079409094
-0.0789668
-0.076724025
-0.070814242
-0.061294546
-0.051304466
-0.042586969
-0.034878104
-0.027911004
-0.0213477
-0.01531234
-0.0096400212
-0.0052789337
-0.002376976
0.00083251007
0.0025489543
-0.002331521
-0.007837781
-0.013529688
-0.019229838
-0.024926255
-0.030277
-0.035547516
-0.041476194
-0.048513231
-0.056197446
-0.063350254
-0.069023968
-0.072156992
-0.072108201
-0.069314986
-0.063484575
-0.055295577
-0.04691996
-0.039271278
-0.032182304
-0.025555089
-0.01927313
-0.01354232
-0.008222188
-0.0040210378
-0.0018886305
0.0036292766
-0.00087740677
-0.0062523045
-0.011974891
-0.017466833
-0.022726247
-0.0274213
-0.031918748
-0.037105823
-0.04299164
-0.049089157
-0.054657937
-0.058982993
-0.06163727
-0.061924745
-0.059616645
-0.054831903
-0.048416632
-0.041663545
-0.035097158
-0.028728115
-0.022621678
-0.016804803
-0.011504187
-0.0067454118
-0.0028509332
-0.0014498305
0.0002556268
-0.0042144964
-0.0097991074
-0.014973202
-0.019841297
-0.023901755
-0.027839677
-0.032337782
-0.037265099
-0.04216705
-0.046493084
-0.049739038
-0.051600234
-0.051678797
-0.049934207
-0.04632823
-0.041452873
-0.036038717
-0.030455663
-0.024838777
-0.019340443
-0.014063708
-0.0092180171
-0.0049692221
-0.0018102721
8.4591821e-06
0.0037684312
-0.0017215638
-0.006974342
-0.011783862
-0.016315722
-0.019899696
-0.023445689
-0.027333999
-0.031486229
-0.035518594
-0.039029046
-0.041595526
-0.042974574
-0.042987122
-0.041512089
-0.0387078
-0.034905935
-0.030507086
-0.025778723
-0.020883732
-0.01598941
-0.011282299
-0.0068525223
-0.0038154246
-0.0013911137
0.00083375525
0.0044853388
0.0020034609
-0.0033270617
-0.0078957886
-0.012238213
-0.015538506
-0.018810272
-0.022197286
-0.025733588
-0.029109311
-0.032055226
-0.034236706
-0.035426401
-0.035478986
-0.034325283
-0.032058897
-0.028967346
-0.025307921
-0.021260613
-0.016955625
-0.012594545
-0.0084140859
-0.0044807702
-0.0013431855
-0.00031947723
0.0033711283
-0.00070887515
-0.0035023025
-0.0078556004
-0.01097399
-0.014029575
-0.017026089
-0.020088329
-0.022956869
-0.02549588
-0.02743752
-0.028593305
-0.028805835
-0.028018674
-0.0262461
-0.023713344
-0.020604544
-0.017080772
-0.013264385
-0.0093969198
-0.0053899195
-0.0031175732
-0.00024203239
0.0037571833
-0.00053488592
-0.0030089415
-0.0063748177
-0.0092380113
-0.011898909
-0.014591367
-0.017045028
-0.019240254
-0.020967137
-0.022105286
-0.022488659
-0.022030516
-0.020707195
-0.018648296
-0.016001795
-0.012893235
-0.009409822
-0.0057906679
-0.0032750045
-0.0011503801
0.00022885941
0.003260655
-0.00059226678
-0.0018792669
-0.0045780909
-0.0070408832
-0.0094801668
-0.01161574
-0.013541677
-0.015031853
-0.016056583
-0.01649943
-0.016255744
-0.015323064
-0.013703425
-0.011577567
-0.0089811327
-0.0058794142
-0.0036487794
-0.0013609288
-0.00038378861
0.0030278491
0.0018332098
-0.0014819397
-0.0026571266
-0.0047637469
-0.0064629605
-0.0081408119
-0.0094290411
-0.010341093
-0.010776119
-0.010605878
-0.0098491087
-0.0084682877
-0.0067507375
-0.0046684584
-0.0016115559
-0.00064674379
-0.00031967345
0.0020949006
0.0018837273
0.00029704651
-0.0011426991
-0.0026176722
-0.0041272223
-0.0050665635
-0.0056640025
-0.0058534912
-0.0052305353
-0.004557893
-0.0035112921
-0.0027929
-0.001492304
0.0016193944
0.0022840879
0.00084321662
-0.00011913626
-0.00089058055
-0.0014132813
-0.001781587
-0.0018589319
-0.0017419831
-0.00091481171
-0.00044819051
0.0010083346
-0.00044557353
0.0015277386
0.0013013004
0.00085070899
0.0011970418
0.0014067921
0.0020133768
0.002205659
0.0023713217
0.00011590605
-0.00019149885
-0.00029821208
-0.00020116931
0.0014405646
0.001761052
0.0024781064
-0.00062329805
-0.001520636
-0.0029185039
-0.003917819
-0.0049620122
-0.0050930076
-0.004793697
-0.0041177315
-0.0028056027
-0.0015311514
-0.00047435153
0.0010873018
0.0024870356
0.0020736517
0.001641999
-0.0022038131
-0.0046930577
-0.0067287549
-0.0084055176
-0.0094453117
-0.0098997266
-0.0097581052
-0.0091595608
-0.0081893201
-0.0068216492
-0.0054084557
-0.0035594929
-0.0025059028
0.00023538841
0.0014145274
0.0023419459
-0.00069321843
-0.0032032823
-0.006911734
-0.0097727374
-0.012030364
-0.013770794
-0.014875347
-0.015391841
-0.015305747
-0.014661554
-0.013539614
-0.011936096
-0.010060787
-0.0078379579
-0.0055187897
-0.0030177493
-0.0018052878
0.00085847905
0.0027639986
0.00040655522
-0.0024582419
-0.0068117641
-0.010770292
-0.014082279
-0.016804676
-0.018924166
-0.020401897
-0.021129594
-0.021120908
-0.020417404
-0.019132217
-0.017310382
-0.015122826
-0.012569559
-0.0099292296
-0.0070508397
-0.0040613314
-0.0020666307
0.00058868298
0.0026712283
0.00067081063
-0.0015169886
-0.0064254567
-0.010711164
-0.014705572
-0.018259698
-0.021368994
-0.023983141
-0.025974173
-0.027225985
-0.027520267
-0.026884146
-0.025448083
-0.023321841
-0.020714877
-0.017716529
-0.014590879
-0.011266219
-0.0081387563
-0.0045803077
-0.0026755866
0.00049410118
0.003883338
-0.000162438
-0.0048575497
-0.0094858104
-0.013944612
-0.018169941
-0.022083729
-0.02567696
-0.028903346
-0.031614194
-0.03348365
-0.034287873
-0.033845252
-0.032316073
-0.029843123
-0.026716436
-0.023149674
-0.019455384
-0.015651258
-0.012069696
-0.0082879976
-0.0050497416
-0.0011726023
-0.0026892671
0.0044551255
2.1746069e-05
-0.0031828392
-0.0079623495
-0.012727837
-0.01742613
-0.02201303
-0.026443808
-0.030689798
-0.034659074
-0.038156757
-0.040750486
-0.041981407
-0.041657672
-0.039951496
-0.037016559
-0.033199633
-0.028868165
-0.024439074
-0.020029008
-0.015947876
-0.011843689
-0.0082569191
-0.0042256048
-0.0020670376
0.0020221029
-0.0011334555
-0.0057433867
-0.010659979
-0.01572409
-0.02080645
-0.025925943
-0.031065102
-0.03620487
-0.041242032
-0.045880507
-0.049369129
-0.051053901
-0.050742625
-0.048594074
-0.044951512
-0.040194867
-0.034843683
-0.029465921
-0.024284317
-0.019593974
-0.015052709
-0.011011909
-0.0064732936
-0.0031595109
-0.00035140209
0.0035105724
0.00028550831
-0.0034612524
-0.0083097731
-0.013348142
-0.018686899
-0.024182299
-0.029909332
-0.035876562
-0.042097306
-0.048473177
-0.054606083
-0.059246403
-0.061648934
-0.061136536
-0.058359191
-0.05368514
-0.047649553
-0.040974716
-0.034418581
-0.028313878
-0.022920389
-0.017907519
-0.013346271
-0.0084541693
-0.0038938812
-0.00019744591
0.0025600731
-0.0014723046
-0.0052766398
-0.010438356
-0.015660139
-0.021309349
-0.027256668
-0.033628556
-0.040470661
-0.047841271
-0.055671415
-0.063407152
-0.069167624
-0.072347966
-0.071944753
-0.068660095
-0.062847318
-0.055302525
-0.04702239
-0.039092674
-0.031959929
-0.025833333
-0.02033488
-0.015286671
-0.010150445
-0.0050705001
-0.0024173469
0.00099457903
-0.0031580348
-0.0070291152
-0.012317864
-0.017680838
-0.023580234
-0.029924482
-0.036852558
-0.044446967
-0.052804241
-0.06188504
-0.071038781
-0.076847368
-0.080052968
-0.079865596
-0.077100774
-0.070639557
-0.061944241
-0.052191079
-0.042982583
-0.034921805
-0.028138136
-0.022158076
-0.016660109
-0.011286072
-0.005903847
-0.0031160098
0.00022202987
0.00028584497
-0.0045278995
-0.0084366838
-0.013753811
-0.019249028
-0.025334219
-0.0319556
-0.039228708
-0.047311143
-0.056250196
-0.06634668
-0.075927556
-0.079977108
-0.083438863
-0.08346399
-0.081099132
-0.07516925
-0.06621283
-0.055545751
-0.045479455
-0.036825551
-0.029628898
-0.023254072
-0.017433224
-0.011790047
-0.0068219063
-0.0034934643
0.00051086302
-0.0015512436
-0.0044257222
-0.0094622787
-0.014680293
-0.020303212
-0.026485771
-0.033184578
-0.040528892
-0.04876154
-0.057845194
-0.068284499
-0.077103757
-0.084434609
-0.087798766
-0.084773685
-0.08203999
-0.076514673
-0.06736585
-0.056307391
-0.046191011
-0.037455154
-0.030078693
-0.02346919
-0.017377631
-0.011721176
-0.0063569284
-0.0032940988
-0.00019395007
-0.00029644457
-0.0050803976
-0.0097854563
-0.015143599
-0.020768522
-0.026911529
-0.033409755
-0.040464213
-0.048240091
-0.057040346
-0.066824812
-0.074440032
-0.08182016
-0.086917741
-0.083877324
-0.080652454
-0.075049099
-0.065623818
-0.05487476
-0.04523391
-0.036811918
-0.029506708
-0.022813996
-0.016688237
-0.010980877
-0.0065644531
-0.00305397
0.00018011792
0.00029152334
-0.0042220412
-0.0096155001