/*--------------------------------*- C++ -*----------------------------------*\
| =========                 |                                                 |
| \\      /  F ield         | OpenFOAM: The Open Source CFD Toolbox           |
|  \\    /   O peration     | Version:  2406                                  |
|   \\  /    A nd           | Website:  www.openfoam.com                      |
|    \\/     M anipulation  |                                                 |
\*---------------------------------------------------------------------------*/
FoamFile
{
    version     2.0;
    format      ascii;
    arch        "LSB;label=32;scalar=64";
    class       volScalarField;
    location    "50";
    object      epsilon;
}
// * * * * * * * * * * * * * * * * * * * * * * * * * * * * * * * * * * * * * //

dimensions      [0 2 -3 0 0 0 0];

internalField   nonuniform List<scalar> 
150387
(
0.0019541426
0.00014302916
0.0001520844
0.00015802579
0.00015488521
0.00013425647
0.00011674242
5.5665524e-05
4.249384e-05
7.8232764e-05
0.0001174507
0.00015690669
0.00017070503
0.00017806439
0.00017941887
0.00017710273
0.00016889485
0.0001525302
0.00013034858
9.6586192e-05
6.6198022e-05
7.1887004e-05
0.00012382223
0.00014164635
0.0001497576
0.00015703894
0.00016166912
0.00016329421
0.00016263281
0.00016023376
0.00015659847
0.00015338028
0.00014927394
0.00014347608
0.00014161095
0.00011349074
5.6976267e-05
5.3217215e-05
0.00010627478
0.00013416573
0.00014776053
0.00015525677
0.00016009656
0.00016341751
0.00016524444
0.00016535773
0.00016397422
0.00016135576
0.00015933496
0.00015902272
0.00015817052
0.00015617575
0.00015290152
0.000142
0.0001278792
7.5563189e-05
7.2002257e-05
0.00011879924
0.00014671576
0.00015212078
0.00015817974
0.00016296222
0.00016661644
0.00016898604
0.00017009104
0.00016977293
0.00016856102
0.0001665848
0.00016576966
0.00016552593
0.00016472318
0.00016307811
0.00016039039
0.00015540197
0.00014968916
0.00014136034
8.8224307e-05
0.00010614591
0.00014702374
0.00015430925
0.00015978204
0.00016469134
0.00016865017
0.00017167414
0.0001735612
0.00017436613
0.00017511429
0.00017466802
0.00017345243
0.00017356311
0.00017306482
0.00017098644
0.00016885477
0.0001661728
0.00016229978
0.0001571993
0.00015067313
0.00013628061
7.0155138e-05
7.7857003e-05
0.0001344011
0.00015229717
0.00015977079
0.00016509262
0.00016956227
0.00017307956
0.00017568875
0.00017743182
0.00017958216
0.00018080886
0.00018049941
0.00018008609
0.00018084911
0.00018012933
0.00017748297
0.00017419429
0.00017117282
0.00016752362
0.0001627362
0.00015632149
0.00014527534
0.00010799974
4.2807342e-05
5.5109574e-05
0.00012984996
0.00014894244
0.00015816307
0.00016423301
0.00016919853
0.00017339865
0.00017661188
0.00017964478
0.00018230521
0.00018437742
0.0001852962
0.00018491245
0.00018532699
0.00018642587
0.00018569782
0.00018300535
0.00017891421
0.00017550655
0.00017197479
0.00016755272
0.00016185855
0.00015372801
0.00013848218
0.00010962653
8.0347449e-05
0.00014161772
0.00015473731
0.00016177234
0.00016739673
0.00017232403
0.00017709763
0.00018116999
0.00018435526
0.00018637276
0.00018764296
0.00018768757
0.00018711925
0.00018822837
0.00018968673
0.00018927894
0.00018692889
0.00018309757
0.0001790328
0.00017548696
0.0001714558
0.00016632509
0.0001596617
0.00014958716
0.00012477839
4.4371631e-05
0.00011326382
0.00014667569
0.00015725531
0.00016382041
0.00017004419
0.00017630964
0.00018167962
0.00018561896
0.00018808375
0.00018904641
0.00018920495
0.00018788665
0.00018718605
0.0001886043
0.00019048096
0.00019072934
0.00018918487
0.0001861987
0.0001819812
0.00017819981
0.00017443172
0.00016980844
0.00016395785
0.00015581226
0.00013856891
8.8063933e-05
7.691861e-05
0.00014543633
0.00015178773
0.00015866241
0.0001656005
0.00017296226
0.0001798429
0.00018531509
0.00018890261
0.0001904951
0.00019025334
0.00018924294
0.00018671941
0.00018593428
0.00018744661
0.000189427
0.00019031284
0.00018984012
0.00018798157
0.00018464105
0.00018016378
0.00017632954
0.00017209018
0.00016681701
0.00016038547
0.00015244227
0.00014077203
0.00013951533
0.00016382534
0.00015517726
0.00015913003
0.00016631085
0.00017421673
0.00018150667
0.00018709467
0.00019039553
0.0001912974
0.00019015687
0.00018961463
0.00019160579
0.0001923952
0.00019355548
0.00019129797
0.00018957071
0.00018968872
0.00018897941
0.00018657893
0.00018243651
0.00017754473
0.00017316493
0.00016835463
0.00016322382
0.00016173801
0.00017542095
7.2462838e-05
0.00014457376
0.00017171803
0.00015841626
0.00016028269
0.00016662355
0.00017414605
0.00018131578
0.00018668751
0.00018960265
0.00018989907
0.00018844734
0.00019287807
0.00023463759
0.00025918107
0.00024286042
0.00020733993
0.00018862271
0.00018815891
0.00018876003
0.00018736218
0.00018379065
0.00017849075
0.00017315622
0.00016835537
0.00016384536
0.00016456226
0.00019158807
9.3764457e-05
0.00011385299
0.00015944028
0.00015955809
0.0001630618
0.00016834912
0.00017472685
0.00018068087
0.00018518504
0.00018763415
0.00018775342
0.00018647882
0.00019336179
0.00026191794
0.0003044337
0.00023313686
0.00021437267
0.0001881883
0.00018725376
0.00018808904
0.0001869402
0.00018358052
0.00017826164
0.00017211269
0.00016698682
0.00016239411
0.0001593339
0.00015486159
8.2556279e-05
0.00013151038
0.00016760701
0.00016179199
0.00016514904
0.00016977388
0.00017581343
0.00018160637
0.00018591462
0.00018801766
0.00018790971
0.00018652253
0.00019288153
0.00024314202
0.000265126
0.00026510787
0.00021203949
0.00018808898
0.00018712175
0.00018782912
0.00018645495
0.0001827217
0.0001768892
0.00017032432
0.00016468725
0.00016068314
0.00016205602
0.00018280019
9.0798442e-05
0.00013616327
0.00017268057
0.00016272911
0.00016602379
0.00017071809
0.00017534632
0.00018094925
0.00018552018
0.00018821754
0.00018903094
0.00018836378
0.00019038815
0.00020555865
0.00021252004
0.00021176433
0.00019734217
0.00018925176
0.00018939826
0.00018952298
0.00018748294
0.00018302918
0.00017654301
0.00016894427
0.00016228717
0.00015766094
0.00015992813
0.00018905239
8.7760069e-05
0.00012054731
0.00015885522
0.00015963835
0.00016508757
0.00017037121
0.00017476068
0.00017905827
0.00018384359
0.00018733406
0.00018927798
0.00018963542
0.00018920702
0.00018799509
0.00018778793
0.00018899803
0.00018941138
0.00018982161
0.00019030845
0.00018967795
0.00018708067
0.00018243074
0.0001760382
0.00016872
0.00016199857
0.00015578566
0.00015201152
0.00017704966
0.00011625698
6.459821e-05
0.00013642836
0.00015383679
0.00016248392
0.00016857459
0.00017335835
0.00017721556
0.00018135311
0.00018557495
0.00018856927
0.00019015494
0.00019026181
0.00018819622
0.00018731656
0.0001884708
0.00018960133
0.00019003872
0.00018957156
0.00018797688
0.00018472123
0.00017987458
0.00017389981
0.00016767012
0.00016129555
0.00015383379
0.00014155638
0.00011293019
9.8614145e-05
0.00014553297
0.00015829017
0.00016546807
0.00017081226
0.00017495177
0.0001783898
0.00018282754
0.00018673841
0.00018938882
0.00019031918
0.00018905079
0.00018826562
0.00018933832
0.00018967518
0.00018899951
0.00018742337
0.0001847713
0.00018093735
0.00017665897
0.00017154825
0.00016590027
0.0001595843
0.00015043801
0.00012795626
9.9024364e-05
6.5077514e-05
0.00013958424
0.00015264765
0.0001611112
0.00016716962
0.00017178524
0.00017536788
0.00017904752
0.00018339319
0.00018669767
0.0001881394
0.00018753509
0.00018720688
0.00018820316
0.00018790406
0.00018635196
0.00018384956
0.00018101587
0.00017771376
0.0001737037
0.00016883917
0.00016324766
0.00015647657
0.00014642541
0.00012587915
4.6635144e-05
0.00010528415
0.00014064077
0.00015518154
0.00016252024
0.00016765497
0.00017155599
0.00017468892
0.00017863458
0.00018207798
0.00018359401
0.00018339256
0.00018391233
0.00018489522
0.00018420792
0.00018211617
0.00018013087
0.00017766526
0.0001744123
0.00017023993
0.00016513914
0.00015898237
0.00014920813
0.00012579286
0.00015581096
5.0733069e-05
0.00012560884
0.00014860464
0.00015705159
0.00016262596
0.00016684509
0.00016990489
0.00017268042
0.00017579519
0.00017706485
0.00017718535
0.00017857955
0.0001796125
0.00017897495
0.00017807776
0.00017650148
0.00017394676
0.00017031213
0.00016571339
0.0001602034
0.00015334808
0.00014074705
0.00010000719
6.0971811e-05
7.3359145e-05
0.00013884482
0.0001504487
0.00015642495
0.00016130384
0.0001645355
0.00016664576
0.00016858581
0.00016939006
0.00017010832
0.00017235314
0.00017377041
0.00017437041
0.00017396913
0.00017221713
0.00016920652
0.00016501531
0.00015967437
0.0001535187
0.00014592154
0.00012356444
6.1461711e-05
8.9809494e-05
0.00013558694
0.00014537409
0.00015386944
0.00015827975
0.00016039211
0.00016158708
0.00016194631
0.0001635932
0.00016680753
0.00016895224
0.00016982298
0.00016912636
0.00016681378
0.00016305992
0.00015790979
0.00014989703
0.00014109553
0.00012417003
7.715035e-05
7.2710019e-05
0.00010895409
0.00014010085
0.00014879364
0.00015227071
0.0001547415
0.00015640506
0.00015981034
0.00016321765
0.00016523284
0.0001655182
0.00016364077
0.00015969142
0.00015387575
0.00014721479
0.00012557132
0.00010058992
6.1147425e-05
5.3507989e-05
0.00011202356
0.00012410207
0.00013449272
0.00014650808
0.00015622394
0.00016400167
0.0001678776
0.00016905821
0.00016692638
0.00016004096
0.00014761396
0.00013108221
0.00012625802
0.00015358252
5.3674326e-05
4.7540115e-05
8.0424655e-05
0.00013177278
0.00017027531
0.00019764526
0.0002043427
0.00020424081
0.0001953233
0.00018591882
0.00011715078
9.9382677e-05
4.6677405e-05
6.6777466e-05
9.6242058e-05
0.00010518997
0.00010540088
8.7601078e-05
0.0001150992
0.00015396696
0.00021890423
0.0001960659
0.00021604277
0.00021947294
0.00021647893
0.00019851647
0.00020207278
0.00013580518
0.00015809337
0.00010613681
0.0001196419
0.00013611637
0.00014606425
0.00015001761
0.0001491172
0.00014566866
0.00013735983
0.00012345307
0.00010787497
9.5981404e-05
0.00011236185
0.00015691756
0.00014924926
9.8166848e-05
0.00012270964
0.00012450885
0.00012834086
0.00013107053
0.00013207247
0.00013135295
0.00012929555
0.00012652255
0.0001236198
0.00012075227
0.00011756673
0.00011436957
0.00011734631
9.466461e-05
0.00013199833
0.00018478704
0.00011830449
0.0001205576
0.00012814684
0.00013149799
0.00013282278
0.00013294135
0.00013196672
0.00013028084
0.0001281245
0.00012602775
0.00012487395
0.00012440095
0.00012387982
0.00012296086
0.00012132885
0.00011438932
0.00011321513
0.00012550177
0.00018674488
0.00012306021
0.0001246802
0.00012895683
0.00013224789
0.00013412125
0.00013459617
0.00013413418
0.00013294675
0.00013155109
0.00013023515
0.00012941875
0.0001290487
0.00012854003
0.00012811706
0.00012777038
0.00012707463
0.00012505895
0.00012250306
0.00012282517
0.00013447368
0.00013502459
0.00011314657
0.00012228673
0.00012788057
0.00013154705
0.00013380378
0.00013502417
0.00013523131
0.00013480593
0.00013427383
0.00013437727
0.00013414456
0.00013413087
0.00013413261
0.00013333139
0.00013179462
0.00013111195
0.00013075267
0.00012993953
0.00012821359
0.00012469792
0.00011818561
0.00011811267
9.4674773e-05
0.00011402
0.00012464404
0.00012952916
0.00013251023
0.0001343227
0.00013532448
0.00013571568
0.00013603825
0.00013712401
0.000137879
0.00013815858
0.00013878915
0.00013889033
0.00013777139
0.00013569597
0.00013388171
0.00013334576
0.00013296212
0.00013193329
0.00012923599
0.00012070896
9.8233552e-05
0.00014213976
0.00016125953
0.00011717474
0.00012096243
0.00012667877
0.00013032981
0.00013288574
0.00013469881
0.00013599842
0.00013734611
0.00013878188
0.00014000532
0.00014084534
0.00014150835
0.00014258251
0.00014266051
0.00014129605
0.00013895803
0.00013627586
0.0001351575
0.00013483722
0.00013426519
0.00013263127
0.00012850277
0.00012324266
0.00015160122
9.5659988e-05
0.00011402508
0.00012259993
0.00012740796
0.00013077701
0.00013356707
0.00013618221
0.00013846592
0.00014014574
0.00014134597
0.00014223404
0.00014279265
0.00014359844
0.00014490043
0.00014499562
0.00014362646
0.00014133402
0.00013861652
0.00013649288
0.00013590149
0.00013556123
0.00013458106
0.00013188355
0.00012476998
0.00010610137
9.1028736e-05
0.0001395291
0.00010796222
0.00011731209
0.00012357725
0.00012789151
0.00013183691
0.00013581285
0.00013906861
0.00014138925
0.00014276255
0.0001435014
0.00014388742
0.00014402984
0.00014468576
0.00014596234
0.00014598553
0.00014479339
0.00014282875
0.00014039675
0.00013772449
0.00013631439
0.00013584796
0.0001351425
0.00013329353
0.00012874126
0.00011955293
0.00012816945
0.00016767981
0.00012422077
0.00012057104
0.00012418735
0.00012870245
0.00013359079
0.00013808625
0.00014163695
0.00014395602
0.00014500771
0.00014541018
0.0001461765
0.00014806733
0.00014876583
0.00014938923
0.00014729828
0.00014543269
0.00014371776
0.00014172933
0.00013925981
0.00013660976
0.00013548071
0.00013474937
0.00013345785
0.00013137949
0.00013468302
0.00018086053
0.0001877216
0.00013710548
0.00012339987
0.00012470954
0.00012933432
0.00013455255
0.00013938851
0.00014328361
0.00014564084
0.00014652192
0.00014751577
0.00015438825
0.00017723171
0.00018242639
0.00017701076
0.00015532805
0.00014663108
0.00014430988
0.00014271364
0.00014057543
0.00013773997
0.00013501345
0.00013364901
0.0001325198
0.00013221734
0.00014482571
0.0002141833
0.00022804867
0.00020375663
0.00014064457
0.00012570609
0.00012595473
0.0001299347
0.00013482386
0.0001395778
0.0001434412
0.00014581425
0.0001468318
0.0001500067
0.00017601359
0.00026123234
0.00033846023
0.00029836555
0.00017905359
0.00014896041
0.00014463227
0.00014337504
0.00014144253
0.00013854938
0.00013505032
0.0001322617
0.00013078707
0.00013060126
0.00014306029
0.00022430357
0.0001871007
0.00013401658
0.00012887173
0.00012682122
0.00012800852
0.00013088955
0.00013505696
0.00013918703
0.00014261276
0.00014477496
0.0001458262
0.00014979443
0.00018251806
0.0003386707
0.00097489863
0.00055071008
0.00018489657
0.00014935485
0.00014484132
0.00014377561
0.00014187472
0.00013874522
0.00013482543
0.00013086288
0.00012865199
0.00012754046
0.00012948996
0.00013463586
0.0001098818
0.00017787497
0.00014266269
0.00013008565
0.00013018659
0.00013181991
0.00013523488
0.00013893257
0.00014200913
0.00014401282
0.00014520811
0.00014901881
0.00017625695
0.00029707254
0.00055270769
0.00037176877
0.00017887584
0.00014942766
0.00014562072
0.00014457634
0.00014245879
0.0001389069
0.00013439688
0.00012975897
0.00012657602
0.00012647655
0.00014127398
0.000205611
0.0001660591
0.0002005308
0.00014465179
0.00013189856
0.00013207075
0.00013314103
0.00013482328
0.0001379861
0.00014088623
0.00014314319
0.00014467958
0.00014671351
0.00015417956
0.00017581291
0.00018153692
0.00017632265
0.00015525443
0.00014736328
0.00014585567
0.00014476328
0.00014244605
0.00013873655
0.00013400929
0.00012895636
0.00012512849
0.00012400358
0.00013760302
0.00022242665
0.00020784583
0.00022390695
0.00013469237
0.00013123337
0.00013316092
0.00013434073
0.00013510421
0.00013669809
0.00013947335
0.00014192282
0.00014399198
0.00014567242
0.00014741698
0.00014962998
0.00014973722
0.00014947251
0.00014715352
0.00014577003
0.0001449135
0.0001436051
0.00014121968
0.00013768811
0.00013325436
0.00012852303
0.00012455844
0.00012097712
0.00012444267
0.00020622689
0.00015550137
0.00011968834
0.00012873682
0.00013315754
0.00013486554
0.00013549323
0.00013603523
0.00013784084
0.00014054743
0.00014301217
0.00014508908
0.00014639377
0.00014663176
0.00014614313
0.00014587526
0.00014521143
0.00014431281
0.00014315124
0.00014149901
0.00013903363
0.00013573039
0.00013189158
0.00012827487
0.00012409357
0.00011778992
0.00010835529
0.00014901273
0.0001061819
0.00012484993
0.00013187675
0.00013446072
0.00013531992
0.00013557036
0.00013623216
0.0001387121
0.00014150132
0.0001439249
0.00014548762
0.00014578349
0.00014531347
0.00014479915
0.00014380963
0.00014244432
0.0001409107
0.00013895115
0.00013650375
0.00013408836
0.00013134527
0.00012802131
0.00012321651
0.00011462519
9.645591e-05
0.00011729265
0.00011909085
0.00012346359
0.00012863165
0.00013263582
0.0001341422
0.00013459106
0.00013489162
0.00013632763
0.00013909066
0.00014153848
0.00014313691
0.00014361519
0.00014338129
0.00014284585
0.00014166856
0.00014012851
0.00013837161
0.00013687319
0.00013548941
0.00013368784
0.00013108553
0.00012736189
0.00012148822
0.00011688747
0.00014943891
0.00013002143
0.00015669457
9.8129274e-05
0.00012072958
0.00012926963
0.00013188583
0.00013279508
0.0001330793
0.00013364252
0.00013577823
0.00013795916
0.00013924934
0.00013987705
0.0001400923
0.00013984741
0.00013882978
0.00013743693
0.00013679401
0.00013632159
0.00013526814
0.00013339723
0.00013033545
0.00012538778
0.00011454657
9.3626451e-05
0.00012248372
0.00013088324
0.00011772687
0.000124592
0.00012819234
0.00012983607
0.00013053562
0.00013085343
0.00013176989
0.0001334428
0.00013439711
0.00013519201
0.00013597482
0.00013616404
0.00013570178
0.00013596252
0.00013629576
0.00013605841
0.00013478766
0.000132442
0.00012862203
0.00012259938
0.00011303855
0.00012476278
0.00012914474
0.00012236812
0.00012234125
0.00012497989
0.00012688893
0.00012750225
0.00012785379
0.00012854347
0.00012919008
0.00013037976
0.00013181579
0.00013280691
0.00013406155
0.00013520589
0.00013566371
0.00013515853
0.00013324309
0.00012977971
0.0001248939
0.00012221978
0.00015063514
0.00016739491
0.00013568671
0.00011286783
0.00011421153
0.00012110443
0.00012270018
0.00012353133
0.00012407007
0.00012483111
0.00012670268
0.00012915552
0.00013131676
0.0001330351
0.00013402755
0.00013391611
0.00013253504
0.00012925127
0.00012119406
0.00011746322
0.00015236912
0.00017956695
0.00011339546
9.3677671e-05
0.00011678307
0.00011407014
0.00011712189
0.0001202717
0.0001236735
0.0001272055
0.00013017849
0.00013234732
0.00013321435
0.00013227485
0.00012951929
0.00012550213
0.00012431214
9.8928826e-05
0.00013065465
0.00016934569
0.00015107945
0.00014923981
9.5680448e-05
0.00010721212
0.00012278271
0.00013743378
0.0001463064
0.00015005756
0.00015118296
0.00014749025
0.00013717225
0.00012063302
0.00010662381
0.00015606078
0.00012587916
8.4110864e-05
0.00011467515
0.00016749759
0.00020619291
0.00023132672
0.00023834753
0.00023894942
0.00023098104
0.00021912483
0.00015964872
0.00013253952
0.00014081667
0.00022757396
0.00020199805
0.00019642793
0.0001988041
0.00021004986
0.00020727194
0.00022617766
0.00021869636
0.00025823383
0.00026070291
0.00025717487
0.00023830839
0.00023726096
0.00018405498
0.00022836577
0.00011203504
0.00012025994
0.00013615977
0.00014749487
0.00015166573
0.00015060207
0.00014690107
0.00013802313
0.00012279069
0.00010671258
9.8990665e-05
0.00013762748
0.00019808582
0.00019788501
0.00010427543
0.00012347129
0.00012056968
0.0001236465
0.00012641295
0.00012759773
0.00012688208
0.00012476591
0.00012191996
0.00011863752
0.00011501852
0.00011131977
0.00010864771
0.00011563768
9.855036e-05
0.00016595548
0.00025011202
0.00012195686
0.00011685984
0.00012375788
0.00012645328
0.00012743723
0.00012720789
0.0001260902
0.0001243716
0.00012232667
0.00012039092
0.00011896383
0.00011810209
0.00011728359
0.00011634743
0.00011536495
0.00010917018
0.00011474746
0.00015451498
0.00024757994
0.000125638
0.00012085836
0.00012376189
0.00012699991
0.00012847238
0.00012856821
0.00012785662
0.00012664818
0.00012551972
0.00012469344
0.00012420832
0.00012347116
0.00012243869
0.00012162935
0.00012118775
0.0001206542
0.0001187571
0.00011782622
0.00012550735
0.0001612538
0.00017267807
0.00011464775
0.00011766165
0.00012250066
0.00012587682
0.00012787043
0.0001286894
0.00012865201
0.00012819913
0.00012806165
0.00012893576
0.00012953692
0.0001299065
0.00012932051
0.00012772211
0.00012551252
0.00012451003
0.00012425634
0.0001238331
0.00012279994
0.00012093254
0.00012189122
0.00014482692
9.8653223e-05
0.0001089089
0.00011842769
0.00012348036
0.00012626355
0.00012779256
0.00012854545
0.00012891696
0.00012966471
0.00013158544
0.00013344064
0.00013481192
0.00013582703
0.00013513584
0.00013289373
0.00012977311
0.00012728177
0.00012664206
0.00012664846
0.00012622614
0.00012402767
0.00011706686
0.00010424082
0.00018953949
0.00021835419
0.00011549516
0.00011507366
0.00012033307
0.00012391785
0.00012629577
0.00012798576
0.00012931669
0.00013101169
0.00013310747
0.00013531853
0.0001374357
0.00013931439
0.00014076118
0.00013990038
0.00013716976
0.00013348586
0.00012981124
0.00012828124
0.00012820784
0.00012826635
0.00012733686
0.0001240638
0.00012392731
0.00018151198
9.861606e-05
0.00010837999
0.00011606903
0.00012092876
0.00012432169
0.00012716914
0.00012996961
0.00013256557
0.00013470106
0.00013658511
0.00013839203
0.00014019639
0.00014214619
0.00014372169
0.00014285292
0.00014006039
0.00013631368
0.00013243084
0.00012960164
0.00012898346
0.00012912473
0.00012885595
0.00012676655
0.0001207717
0.0001120919
0.00012391403
0.00018221853
0.00010658328
0.00011111855
0.00011708306
0.00012156873
0.00012578654
0.00013018942
0.00013395542
0.00013675586
0.00013856759
0.00013979787
0.00014086345
0.00014226795
0.00014380802
0.00014512704
0.00014406995
0.00014155582
0.00013823953
0.00013464666
0.00013114479
0.00012933827
0.00012912522
0.00012900841
0.00012781274
0.00012391772
0.00012048005
0.00014947081
0.00019509415
0.00012284074
0.00011484438
0.00011802311
0.00012282052
0.00012829987
0.00013362557
0.00013800391
0.00014089929
0.00014225557
0.00014297763
0.00014455889
0.00014808235
0.00014948277
0.00014975534
0.00014605775
0.00014259504
0.00013965604
0.00013665208
0.00013332097
0.00012999177
0.00012871164
0.00012834871
0.0001276305
0.00012668495
0.00013581581
0.00020871342
0.000205515
0.00013720962
0.00011836628
0.00011894046
0.0001240285
0.00013015241
0.00013621084
0.00014115488
0.00014415156
0.00014520944
0.00014671656
0.00015564526
0.00018331588
0.00018997814
0.00018287284
0.00015641219
0.00014475303
0.00014097414
0.00013858349
0.00013561178
0.0001319556
0.00012859569
0.00012719246
0.00012651514
0.00012754555
0.00014622785
0.00024198023
0.0003113614
0.00024123055
0.00014046733
0.0001207554
0.00012035958
0.00012497269
0.00013103845
0.00013724281
0.00014236031
0.0001453996
0.00014660373
0.00015077512
0.0001817972
0.0002833197
0.00037511147
0.00033099844
0.00018496556
0.00014873819
0.00014256102
0.00014044755
0.00013775645
0.00013384355
0.00012937704
0.00012603855
0.00012467043
0.00012549324
0.00014311974
0.0002499186
0.00025265455
0.00014285926
0.00012594505
0.00012132203
0.00012213921
0.00012553126
0.00013080607
0.00013636956
0.00014105027
0.00014397218
0.00014550757
0.00015089007
0.00018984388
0.00037456998
0.0011717531
0.00063701499
0.00019241959
0.00015000142
0.0001437681
0.00014207397
0.00013942537
0.00013514585
0.00012996565
0.00012508204
0.00012253471
0.00012190724
0.0001264948
0.00014348125
0.00013828419
0.00020896349
0.00014271481
0.00012504284
0.0001242281
0.0001259211
0.00013005586
0.00013487782
0.00013906484
0.00014189643
0.00014383811
0.00014923618
0.00018211982
0.00032953208
0.00063690097
0.00041638158
0.00018495049
0.00014994856
0.0001448298
0.00014336971
0.00014058129
0.00013586394
0.00013005206
0.00012437199
0.00012071537
0.0001213611
0.0001410363
0.00022459548
0.00022049587
0.00024201771
0.00014601629
0.0001272572
0.00012614111
0.00012687817
0.00012879509
0.00013271445
0.00013657633
0.00013966241
0.00014199214
0.00014530628
0.00015555727
0.00018196821
0.0001890335
0.00018206468
0.00015641207
0.00014614926
0.00014394414
0.000142581
0.00013963396
0.00013492567
0.00012914913
0.00012333765
0.00011917256
0.00011883273
0.00013763927
0.00024691162
0.00027519948
0.00026887148
0.00013577744
0.00012655071
0.00012738815
0.00012805676
0.00012855023
0.00013048811
0.00013400578
0.00013744118
0.00014051352
0.00014341885
0.00014672056
0.00015054564
0.00015065338
0.00014939238
0.00014543057
0.00014305704
0.00014172765
0.0001400329
0.00013706287
0.00013277008
0.0001276088
0.00012240496
0.0001182629
0.00011518477
0.00012307261
0.00021907649
0.00020877987
0.00012055471
0.0001239262
0.00012770485
0.00012880938
0.00012890646
0.00012928941
0.00013161017
0.0001352432
0.00013897243
0.00014246741
0.00014518503
0.00014648301
0.00014559409
0.00014418737
0.00014219761
0.00014043391
0.00013866603
0.00013650216
0.00013354647
0.00012977967
0.00012558813
0.00012178852
0.00011752583
0.00011154418
0.00010690439
0.00016925037
0.00011217399
0.00012084239
0.00012678084
0.00012876653
0.00012894742
0.00012879154
0.00012959496
0.00013288031
0.00013695126
0.00014095596
0.0001440958
0.00014546402
0.00014432949
0.00014239719
0.00014003564
0.00013762252
0.000135261
0.00013278892
0.00013002355
0.00012746593
0.00012473903
0.00012146706
0.0001166527
0.00010893511
9.9372752e-05
0.00014571021
0.00015345291
0.00012408678
0.00012418671
0.00012735402
0.00012817519
0.00012803965
0.00012818124
0.00013013774
0.00013401498
0.00013796361
0.00014108752
0.00014258729
0.00014162188
0.00013967443
0.0001370852
0.00013437173
0.00013186161
0.00012998084
0.00012858235
0.00012696223
0.00012459892
0.000120996
0.00011559549
0.00011536778
0.00016574006
0.00017214193
0.000209314
0.00010409726
0.00011709896
0.0001240711
0.00012620305
0.0001265306
0.00012647988
0.00012724557
0.00013016182
0.0001335225
0.00013612031
0.00013754435
0.00013705475
0.00013555609
0.00013330827
0.00013097091
0.00012982301
0.00012935751
0.00012858568
0.00012705714
0.00012424745
0.00011914037
0.00010943262
9.7501415e-05
0.00014049728
0.00017179136
0.00012148659
0.0001208581
0.00012280664
0.00012377159
0.00012411326
0.00012439082
0.00012571458
0.00012815951
0.00013003136
0.00013134298
0.00013150726
0.00013076242
0.00012944123
0.00012918657
0.00012950905
0.00012952761
0.00012871641
0.00012669713
0.00012322077
0.00011804982
0.00011489537
0.00013947562
0.00016289786
0.0001252091
0.00011774154
0.00011872332
0.00012053876
0.00012102343
0.00012153245
0.0001226717
0.0001239127
0.00012530114
0.0001262626
0.00012669561
0.00012758335
0.00012870815
0.00012940939
0.00012932373
0.00012785937
0.000124502
0.0001210909
0.00012520132
0.00016974162
0.00022363584
0.00016312331
0.00011457396
0.00010905777
0.00011520423
0.00011617308
0.00011705297
0.00011792991
0.0001190881
0.00012101448
0.00012322784
0.00012522061
0.00012692599
0.00012806282
0.00012830711
0.00012732621
0.0001246978
0.00011746635
0.00012132146
0.00017303867
0.00023665428
0.00013511394
9.7630925e-05
0.00011521592
0.00010844074
0.00011096688
0.00011462646
0.00011865313
0.00012242652
0.00012545186
0.00012767394
0.0001285218
0.00012744061
0.00012462609
0.00012141544
0.00012482355
0.00010472426
0.00014983625
0.00023237864
0.00018554869
0.00017445462
9.8696448e-05
0.00010615168
0.00012219381
0.00013799303
0.00014738608
0.00015138172
0.0001526659
0.00014889568
0.00013760417
0.00012161526
0.0001127608
0.00017751602
0.00014783611
0.00010596707
0.00013128054
0.00019050366
0.00023040155
0.00025789686
0.00026576338
0.00026697425
0.0002589983
0.00023704241
0.00018733377
0.00017180515
0.00019754765
0.0003081438
0.00026734588
0.0002627434
0.00026663243
0.00028272752
0.00024012927
0.0002470211
0.00023109576
0.00027440333
0.00027651055
0.0002722392
0.0002519932
0.00025502785
0.00020187759
0.0002641962
0.00012051778
0.0001267101
0.00014160181
0.00015288178
0.0001566836
0.00015511161
0.00015095777
0.0001415353
0.00012572143
0.00010960276
0.00010340643
0.0001489026
0.00021827458
0.00023011716
0.00011297847
0.00012993724
0.00012457885
0.00012685405
0.00012933121
0.00013044975
0.00012942446
0.00012696953
0.00012377244
0.00012000939
0.00011589552
0.00011203741
0.00010993852
0.00011901396
0.00010440909
0.00018608274
0.00028665298
0.00012897052
0.00012081137
0.00012697421
0.00012922093
0.0001299487
0.0001295049
0.00012812493
0.00012622458
0.000124102
0.00012204344
0.00012027208
0.00011897813
0.00011793229
0.00011707954
0.00011659347
0.00011131949
0.00011975797
0.00017020105
0.00028116105
0.00013172742
0.00012437084
0.00012636962
0.00012947787
0.00013089287
0.00013084845
0.00012989611
0.00012864941
0.00012776288
0.00012731281
0.0001269856
0.00012575559
0.00012405538
0.00012275886
0.00012216167
0.00012175787
0.00012027956
0.00012071483
0.00013165139
0.00017776318
0.0001943228
0.00011963094
0.00012055307
0.00012462104
0.00012793782
0.00012997092
0.00013078516
0.00013062352
0.00013021936
0.00013051938
0.00013228262
0.00013381866
0.00013457754
0.00013326296
0.00013058156
0.00012735967
0.00012585106
0.0001255651
0.00012538664
0.00012489758
0.00012447636
0.00012891542
0.00016228657
0.00010451482
0.00011109687
0.00011999303
0.00012507432
0.00012796916
0.00012955528
0.0001303384
0.00013085088
0.00013206335
0.00013503512
0.00013828003
0.00014098418
0.00014261569
0.00014097154
0.00013720578
0.00013257036
0.00012904819
0.00012811514
0.00012830791
0.00012826012
0.00012662854
0.00012100818
0.00011289577
0.00022398337
0.00024165634
0.00011884615
0.00011634224
0.00012148651
0.000125289
0.00012785527
0.00012973583
0.00013133239
0.00013346457
0.00013638397
0.00013983185
0.0001435309
0.00014696048
0.00014919189
0.00014723872
0.00014269297
0.00013717259
0.00013204522
0.00012991001
0.0001299103
0.00013032807
0.00012978317
0.00012725188
0.00013031789
0.00019780475
0.00010294219
0.00010968141
0.0001168498
0.00012197879
0.00012578283
0.00012911128
0.00013244523
0.00013559789
0.00013826959
0.00014085882
0.00014369801
0.00014694755
0.00015038757
0.00015273231
0.00015081603
0.00014621512
0.00014062234
0.00013520158
0.00013146618
0.00013069831
0.00013117396
0.00013123201
0.00012948844
0.00012473301
0.00012059608
0.0001495595
0.00019920645
0.00010929111
0.00011184007
0.00011780258
0.00012283497
0.00012786122
0.00013330189
0.00013801052
0.00014144304
0.00014357171
0.00014507912
0.00014666325
0.00014906783
0.00015176784
0.00015358988
0.00015173088
0.00014773474
0.00014289592
0.00013796101
0.00013342028
0.00013115807
0.00013104353
0.00013124028
0.00013027022
0.00012708527
0.00012700277
0.00016428992
0.00021038841
0.00012540072
0.00011572194
0.00011900972
0.00012467305
0.00013150786
0.00013839233
0.00014405311
0.00014758821
0.00014891099
0.00014936499
0.000150929
0.00015491581
0.00015710252
0.00015767365
0.00015318185
0.00014860547
0.00014464533
0.00014069406
0.00013641058
0.00013225525
0.00013064894
0.00013034346
0.00012988193
0.00012956085
0.00014169222
0.00022199372
0.00021416983
0.00014042439
0.00011971614
0.00012037307
0.00012662231
0.00013455993
0.00014266606
0.00014921195
0.00015284295
0.00015350924