/*--------------------------------*- C++ -*----------------------------------*\
| =========                 |                                                 |
| \\      /  F ield         | OpenFOAM: The Open Source CFD Toolbox           |
|  \\    /   O peration     | Version:  2406                                  |
|   \\  /    A nd           | Website:  www.openfoam.com                      |
|    \\/     M anipulation  |                                                 |
\*---------------------------------------------------------------------------*/
FoamFile
{
    version     2.0;
    format      ascii;
    arch        "LSB;label=32;scalar=64";
    class       volScalarField;
    location    "50";
    object      k;
}
// * * * * * * * * * * * * * * * * * * * * * * * * * * * * * * * * * * * * * //

dimensions      [0 2 -2 0 0 0 0];

internalField   nonuniform List<scalar> 
150387
(
0.00043582149
0.00017707496
0.00019438051
0.00020280441
0.00020014765
0.00017812378
0.0001065065
3.2947536e-05
1.8197132e-05
0.00011369681
0.00016199563
0.00020502692
0.00022457973
0.00023612354
0.0002401208
0.00023942916
0.00023099119
0.00021095468
0.00018408507
0.0001397527
9.0312001e-05
9.9653813e-05
0.00016878494
0.00018999211
0.00020110213
0.0002108227
0.00021843105
0.00022291824
0.00022482025
0.00022438296
0.00022137757
0.00021698402
0.00021057158
0.00020147618
0.0001937785
0.00015001182
5.3229228e-05
2.0349937e-05
0.00014738518
0.00018159765
0.00019892988
0.00020774263
0.00021394276
0.00021853274
0.00022251449
0.00022505037
0.0002261352
0.00022548468
0.00022406894
0.0002232413
0.00022098755
0.00021720837
0.0002112745
0.00019536167
0.00017586405
9.8437215e-05
2.2086809e-05
0.00016226521
0.00019742945
0.00020494553
0.00021196139
0.00021687712
0.00022135143
0.00022497687
0.00022831609
0.00023054135
0.00023143089
0.00023095674
0.00023033573
0.00022953787
0.00022725187
0.0002240019
0.00021937985
0.00021211947
0.00020364519
0.00019015831
0.00011809555
0.00014804862
0.00019916453
0.00020950006
0.00021483704
0.00021968382
0.00022362201
0.00022752374
0.00023098169
0.00023425101
0.00023668258
0.00023793944
0.00023809204
0.00023786535
0.00023645702
0.00023322138
0.00022926556
0.00022472087
0.00021917346
0.0002126546
0.00020366564
0.00018376204
9.3061435e-05
0.00010518619
0.00018597412
0.00020863148
0.00021679887
0.00022156622
0.0002258668
0.00022958821
0.00023329719
0.00023678818
0.00024028023
0.00024332818
0.00024490414
0.00024567786
0.0002455684
0.00024343247
0.00023929382
0.00023427784
0.00022916689
0.0002237166
0.00021762379
0.00020980548
0.00019547413
0.00015000566
4.2244721e-05
2.1725249e-05
0.00017732593
0.0002062534
0.00021711144
0.00022302251
0.000227437
0.00023165532
0.00023544622
0.00023912767
0.00024278353
0.00024643399
0.00024945936
0.0002511269
0.00025238287
0.0002521537
0.00024948182
0.00024480619
0.0002391426
0.00023349458
0.00022797263
0.0002221682
0.00021549484
0.00020591927
0.00018682658
0.00014421158
0.00011839065
0.0001982057
0.00021565491
0.00022293433
0.00022818702
0.0002329127
0.00023742174
0.0002415163
0.00024533241
0.00024856468
0.00025164377
0.00025396781
0.00025548445
0.00025702065
0.000256816
0.00025402116
0.00024924141
0.00024344189
0.00023745292
0.00023175231
0.000226023
0.00021984812
0.00021231316
0.00019986194
0.0001700608
4.4568503e-05
0.00016465896
0.00020743482
0.00022028981
0.00022683321
0.00023253515
0.00023818668
0.00024344771
0.00024778069
0.00025116343
0.00025358177
0.0002556593
0.00025655006
0.00025768653
0.00025911978
0.00025918191
0.00025678806
0.00025251774
0.00024724036
0.00024137503
0.00023549585
0.00022987593
0.00022403696
0.00021745115
0.00020796622
0.00018686077
0.0001189089
5.0936417e-05
0.00020206123
0.00021531537
0.00022341828
0.00022979812
0.00023650023
0.00024320302
0.00024904688
0.00025347658
0.00025629172
0.00025764039
0.00025843472
0.00025766595
0.00025792469
0.00025927603
0.00025971074
0.00025800368
0.00025469786
0.0002503214
0.0002450568
0.00023915504
0.0002334037
0.00022762411
0.00022144667
0.00021425863
0.00020400338
0.00018090986
0.00017433742
0.00022505048
0.00022026086
0.00022460533
0.00023115667
0.00023875577
0.0002464034
0.00025293377
0.00025755683
0.00025997191
0.00026042104
0.00026098208
0.00026262866
0.00026178426
0.00026379399
0.00026213253
0.00025892873
0.00025645403
0.00025315634
0.00024861155
0.00024288486
0.00023674689
0.00023088849
0.00022497496
0.00021943772
0.0002174516
0.00022529319
4.2049524e-05
0.00018896144
0.00023388826
0.00022312929
0.00022556237
0.00023170506
0.00023943451
0.00024748502
0.0002543157
0.00025896838
0.00026100373
0.00026100964
0.00026500768
0.00029682677
0.00029063525
0.00029403072
0.00027523337
0.00025929342
0.00025703762
0.0002552083
0.00025152953
0.00024613001
0.00023959156
0.00023325621
0.00022737844
0.00022255231
0.00022374557
0.00024588644
8.5736467e-05
0.00015799852
0.00021875901
0.00022176426
0.00022623151
0.00023218087
0.00023914866
0.00024645443
0.000252879
0.0002574427
0.00025965672
0.00025982908
0.00026409637
0.00029413135
8.4339668e-05
0.00016161127
0.00027503485
0.00025944432
0.00025786901
0.00025658098
0.00025317268
0.00024783518
0.0002410523
0.00023425538
0.00022808816
0.00022281128
0.00021888767
0.00021027424
7.994242e-05
0.00017638616
0.00022665486
0.00022223265
0.00022602346
0.00023185991
0.00023841947
0.00024540453
0.000251588
0.00025597237
0.00025829585
0.00025902225
0.00026469395
0.00029598365
0.00018717561
0.00028220843
0.00027732946
0.00026021075
0.00025845438
0.00025731145
0.00025393692
0.00024837949
0.00024119226
0.00023398597
0.0002277698
0.00022339265
0.0002246487
0.00023861662
8.6207028e-05
0.0001761316
0.0002281055
0.00022049247
0.00022419934
0.00023005216
0.00023609187
0.00024261182
0.00024877927
0.00025363084
0.0002570242
0.00025907485
0.00026279415
0.00027576699
0.00027444854
0.00027700684
0.00026786832
0.00026044151
0.00025903891
0.00025732643
0.00025358647
0.00024777158
0.00024049993
0.00023284553
0.00022603653
0.0002214089
0.00022352275
0.00024505746
7.9210255e-05
0.00010706533
0.00020867842
0.00021417035
0.00022072436
0.0002270841
0.00023308687
0.0002390195
0.00024509773
0.00025052067
0.00025500781
0.00025833432
0.00026076778
0.00026151012
0.00026065609
0.00026079716
0.00025998152
0.00025864967
0.00025726202
0.00025497661
0.00025108552
0.00024560305
0.00023897187
0.00023188019
0.00022541941
0.00021921506
0.00021390938
0.00022070717
5.4239832e-05
3.8802199e-05
0.00018142826
0.00020557552
0.00021636111
0.00022342276
0.00022952103
0.00023533645
0.00024123478
0.00024712463
0.00025245902
0.00025696235
0.00026008747
0.00026047059
0.00025967735
0.00025898108
0.00025781106
0.00025600398
0.00025364753
0.00025064605
0.00024651547
0.00024135167
0.00023532801
0.0002293538
0.00022346829
0.00021573743
0.00020010134
0.00015603993
0.00013545839
0.00019436153
0.00021079944
0.00021917521
0.0002256456
0.00023148515
0.00023719966
0.00024336217
0.00024931853
0.000254626
0.00025834543
0.00025940265
0.00025854812
0.00025748403
0.00025524929
0.00025228939
0.00024900378
0.00024524717
0.00024088926
0.00023617642
0.00023115396
0.00022599986
0.00022032509
0.00021008526
0.00018247936
9.7381049e-05
9.0410782e-05
0.00018654274
0.00020443068
0.00021457801
0.00022167386
0.00022768236
0.0002333854
0.00023920685
0.00024521321
0.0002507492
0.00025453361
0.00025589476
0.00025516139
0.00025394691
0.00025114312
0.00024750148
0.0002435574
0.00023936716
0.00023532572
0.00023100482
0.00022655089
0.0002216442
0.00021525642
0.00020261544
0.00017310353
3.2990472e-05
0.00014162302
0.00018937491
0.00020800763
0.00021704672
0.00022351496
0.00022923434
0.00023469284
0.00024024014
0.00024542098
0.00024870867
0.00024999505
0.0002497439
0.00024859794
0.00024566028
0.0002417272
0.00023783065
0.00023377512
0.00022990328
0.00022568325
0.0002212598
0.00021564232
0.00020476806
0.00017434066
0.00013549767
4.9509999e-05
0.00017211769
0.00020100644
0.00021214067
0.00021908173
0.00022493041
0.00023003404
0.00023465786
0.00023900667
0.00024147652
0.00024249673
0.00024274043
0.00024180855
0.00023915571
0.00023585077
0.00023216844
0.00022824855
0.00022429406
0.00021986299
0.00021514889
0.00020833949
0.00019330268
0.00013713539
2.6481772e-05
9.7847172e-05
0.00018830978
0.00020479509
0.00021312173
0.00021992569
0.00022509542
0.00022894436
0.0002322694
0.00023383438
0.00023482471
0.00023568696
0.00023507015
0.00023307799
0.00023007899
0.00022642757
0.00022232244
0.00021801861
0.00021263683
0.00020681649
0.00019815942
0.00016938038
5.609173e-05
0.00012070488
0.00018547404
0.00020009618
0.00021233625
0.00021927174
0.00022314511
0.00022579945
0.00022682347
0.00022816983
0.00022950319
0.0002290936
0.00022724573
0.0002240562
0.00022012993
0.00021537815
0.00020996701
0.00020046361
0.00019084445
0.00016976164
7.6526109e-05
9.4829764e-05
0.00015417007
0.00019399217
0.0002079618
0.00021431686
0.00021876987
0.00022139228
0.00022421434
0.00022556986
0.00022490768
0.00022239295
0.00021774318
0.00021185736
0.00020418639
0.00019647506
0.00017007411
0.00013912237
5.8367133e-05
4.740592e-05
0.00014656449
0.00017640421
0.00019229684
0.00020817108
0.00022059228
0.00022862011
0.00023077658
0.00022924187
0.00022354591
0.00021233561
0.00019627214
0.00017739664
0.00016994247
0.00013376934
2.4668145e-05
4.6781143e-05
0.0001168392
0.00017921492
0.0002265768
0.00025472727
0.00026059524
0.00025846348
0.00024587024
0.00022210097
0.00015429162
9.6195739e-05
3.3285459e-05
3.9750917e-05
8.9206916e-05
9.6916941e-05
9.6040229e-05
7.3366095e-05
5.3605038e-05
6.7117092e-05
0.00015254267
0.00026929474
0.00033751221
0.00034720798
0.00034314596
0.00031214206
0.00017049537
9.3258073e-05
0.00011629324
0.00023664157
0.00026841577
0.00030077576
0.0003250572
0.00033602237
0.00033758211
0.00033342747
0.00031883447
0.00029082165
0.00025934376
0.00022805169
0.00017765296
6.837629e-05
7.1920494e-05
0.00021012667
0.00027466179
0.00028520981
0.00029653987
0.0003053043
0.00031151059
0.00031425688
0.00031422262
0.00031202596
0.00030764058
0.00030093102
0.00029210765
0.00028101609
0.00027274605
0.00020445587
0.00011145765
9.7705782e-05
0.00026415453
0.00027759141
0.0002956166
0.00030350381
0.00030839545
0.00031157893
0.00031364854
0.00031454358
0.00031428064
0.00031309369
0.00031150513
0.00030956027
0.00030647891
0.00030185497
0.00029424658
0.00027387049
0.00025793699
0.00018746317
9.8349187e-05
0.00027517192
0.00029066934
0.00029989227
0.00030699868
0.00031129922
0.00031425651
0.00031634382
0.00031794339
0.00031914157
0.00031982318
0.00032001288
0.00031904651
0.00031698444
0.00031417414
0.00031095985
0.00030652375
0.00029877458
0.00028898348
0.000274847
0.00020087205
6.7056158e-05
0.00025781324
0.00028905991
0.00030202453
0.00030841072
0.00031279145
0.00031595644
0.00031849085
0.00032072235
0.00032318414
0.00032621285
0.0003282538
0.00032933192
0.00032831229
0.00032527208
0.00032064725
0.00031672223
0.0003129653
0.00030836841
0.00030211209
0.00029042845
0.00026387276
0.00017611559
0.00020416661
0.00027372763
0.00029863178
0.0003082438
0.00031328862
0.00031696832
0.00031996264
0.00032281611
0.0003260307
0.0003303939
0.00033443542
0.00033726263
0.00033897054
0.00033758044
0.00033348472
0.00032751501
0.00032173857
0.00031744813
0.0003134488
0.00030856143
0.00029994864
0.00027757234
0.00021065977
8.2661944e-05
0.00011753455
0.00027280084
0.00029418968
0.00030647406
0.00031292052
0.00031738928
0.00032122507
0.00032474767
0.00032871553
0.0003331228
0.00033769581
0.00034185777
0.0003451245
0.00034714509
0.00034539376
0.00034052557
0.00033374793
0.0003265494
0.00032127534
0.00031719882
0.00031302843
0.00030717296
0.00029575068
0.00027492089
0.00025372328
0.00022805679
0.00028105616
0.00030190411
0.00031104686
0.00031689161
0.00032197724
0.00032704299
0.00033183655
0.00033613361
0.00034010959
0.00034397426
0.000347372
0.00035052098
0.00035252836
0.00035076029
0.00034574908
0.00033886381
0.0003314015
0.00032483327
0.00032026542
0.00031628545
0.00031157026
0.00030364323
0.00028499045
0.00023529252
7.3539625e-05
6.5162546e-05
0.00026000585
0.00029232366
0.0003066757
0.00031451898
0.00032136687
0.00032838635
0.00033465931
0.00033971766
0.00034351914
0.00034654524
0.00034911664
0.00035099838
0.00035325256
0.00035508816
0.00035363909
0.00034910978
0.00034283679
0.00033583314
0.00032869707
0.00032314348
0.00031891169
0.00031463127
0.0003086227
0.00029641062
0.00026708971
0.00019675461
0.00012831709
0.00029195346
0.00030119977
0.00030991455
0.00031784724
0.00032637414
0.00033475152
0.00034188986
0.0003471237
0.00035032563
0.00035238526
0.00035460401
0.00035708628
0.00035712663
0.00035941607
0.00035630993
0.00035150728
0.00034608053
0.00033998978
0.00033322749
0.00032633216
0.00032120624
0.00031680913
0.00031189815
0.00030521557
0.00029830228
0.00029627735
0.00026499423
0.00031833159
0.0003076714
0.00031192492
0.00032013876
0.000329737
0.00033922634
0.00034729657
0.00035272339
0.00035547824
0.00035770392
0.00036512104
0.00038666138
0.00038269724
0.00038634658
0.00036495335
0.00035432117
0.00034893344
0.00034396909
0.00033790153
0.00033073724
0.00032371546
0.00031847145
0.00031395627
0.00031112279
0.00032252684
0.00036380378
8.5945988e-05
0.0003244457
0.00032552819
0.00031078176
0.00031351449
0.00032140448
0.00033116968
0.00034110548
0.00034948951
0.00035499502
0.00035754447
0.00036168366
0.0003872356
0.00045325212
0.00047046516
0.00046761838
0.00038805311
0.00035756176
0.00035111575
0.00034752042
0.00034209001
0.00033482813
0.00032666476
0.00031964545
0.00031467731
0.00031225236
0.00032493427
0.00039048791
0.00012296845
0.0002903516
0.00030722204
0.00031000936
0.00031443131
0.00032131733
0.00033030339
0.00033963304
0.00034769868
0.00035323683
0.00035602091
0.00035998638
0.00038490024
0.00047454778
0.00019415232
0.00037059415
0.00038558322
0.00035760664
0.00035301529
0.00035028813
0.00034513995
0.00033755344
0.00032866546
0.00032013142
0.00031413516
0.00030993007
0.00030721701
0.00029056945
9.0291338e-05
0.00029801845
0.00032500642
0.00031244237
0.00031491441
0.00032023156
0.00032810665
0.0003367016
0.00034432902
0.0003499547
0.0003535895
0.00035943827
0.00038731251
0.00046939091
0.00039782262
0.0004789821
0.00038884548
0.0003596385
0.00035457871
0.00035197002
0.00034679705
0.00033886624
0.00032936038
0.00032005354
0.00031317513
0.00031074216
0.00032559258
0.00037196411
0.00011734308
0.00031065652
0.00032274249
0.00031140742
0.0003142241
0.00031882737
0.00032458066
0.00033223133
0.00033958489
0.00034591101
0.00035087832
0.00035594331
0.00036557397
0.00038687914
0.00038282721
0.00038593791
0.00036547501
0.00035666194
0.00035351242
0.00035038451
0.00034496328
0.00033716388
0.0003278805
0.0003185951
0.00031134137
0.00030738344
0.00031815215
0.00038631029
0.0001136507
0.0001831212
0.00029865375
0.00030555219
0.00031216066
0.00031707839
0.00032166821
0.00032743266
0.00033457553
0.00034140132
0.00034770144
0.00035318841
0.00035797001
0.00036128578
0.00035938706
0.00035914672
0.00035558438
0.00035230366
0.00034942327
0.00034574106
0.00034035466
0.00033323307
0.00032496748
0.00031667953
0.00030937888
0.00030075409
0.00029151802
0.00033459007
0.0001072417
0.00026740146
0.00029673767
0.00030888906
0.00031483743
0.00031916585
0.00032362467
0.00032971569
0.00033701418
0.00034417724
0.00035073297
0.00035556336
0.0003573916
0.00035610287
0.00035386702
0.00035086214
0.00034731964
0.00034349599
0.00033915011
0.00033380143
0.0003274223
0.00032053979
0.00031405366
0.00030636189
0.00029204508
0.00025995796
0.00025338526
0.00023547884
0.00028527268
0.00030391727
0.00031178995
0.00031647992
0.0003204851
0.00032527247
0.00033236233
0.00034006558
0.00034728284
0.00035270464
0.00035506053
0.00035367917
0.00035052579
0.00034622627
0.00034145022
0.00033680992
0.00033194948
0.00032683019
0.00032187497
0.00031678667
0.00031095195
0.0003017935
0.00028103209
0.00022872596
0.0001085756
0.00018707281
0.00027522726
0.00029602801
0.00030736633
0.00031318086
0.00031733431
0.00032153818
0.00032731345
0.00033478423
0.00034188096
0.00034721965
0.00034975586
0.00034843086
0.00034502757
0.00034016519
0.00033493104
0.0003298781
0.00032548314
0.00032169953
0.00031773799
0.00031313189
0.00030656181
0.00029410446
0.0002721467
0.00028052815
5.8815924e-05
6.8015736e-05
0.00021095228
0.00027764793
0.00030005243
0.00030867398
0.00031354394
0.00031757878
0.00032206706
0.00032836194
0.00033465159
0.00033911671
0.0003414862
0.0003405576
0.00033756808
0.00033298128
0.00032800383
0.00032417235
0.00032097286
0.00031773005
0.00031383016
0.0003085941
0.00029886219
0.00027386048
0.00020379025
0.00018169348
0.00011071271
0.00026339259
0.00029026227
0.00030214392
0.00030842551
0.00031303034
0.00031690262
0.00032124917
0.0003262127
0.00032958297
0.00033160511
0.0003312991
0.00032905423
0.00032544578
0.00032245351
0.00031986564
0.00031706232
0.00031364535
0.00030900516
0.00030232786
0.00028886044
0.00025824403
0.00022302814
0.00019292036
0.00027447574
0.00028878053
0.0002987909
0.00030653395
0.00031101562
0.00031438793
0.00031764875
0.00032000387
0.00032194832
0.00032243123
0.00032131109
0.00031979868
0.00031792938
0.00031559734
0.00031239651
0.00030785199
0.00030039685
0.00029037595
0.00027444818
0.00027780948
8.7745605e-05
0.00020082075
0.00025790033
0.00027375243
0.00029412677
0.00030181295
0.00030647695
0.00030971648
0.0003121134
0.00031455893
0.00031614496
0.00031632145
0.00031531014
0.00031305448
0.00030964878
0.00030455118
0.00029661731
0.00027807364
0.00026314019
0.00027965726
9.6238492e-05
0.00016977377
0.00020427299
0.00027227889
0.00028089093
0.00029190464
0.00030076387
0.00030815203
0.00031334248
0.00031575443
0.00031582613
0.00031309004
0.00030671527
0.00029757664
0.00028595642
0.00027619634
0.00021134902
0.00023247774
8.8544593e-05
8.6318846e-05
0.00024910948
0.00022800186
0.00025894559
0.00029026327
0.0003190501
0.00033448054
0.00033894344
0.00033746023
0.0003265284
0.00030153701
0.00026842841
0.00023596565
0.00028594196
0.00018902601
6.9403411e-05
0.00018747363
0.00028567937
0.00035861781
0.00040127407
0.0004114568
0.00041012148
0.00039310559
0.00034425408
0.00026012939
0.00011764773
6.1783572e-05
8.5789352e-05
0.00012950126
0.00013302672
0.00013279803
0.00011430655
8.3360171e-05
0.00015139816
0.00029854908
0.00040397584
0.0004135102
0.00040865866
0.00037413757
0.00017956878
0.00011456257
0.00015457883
0.0002707175
0.00030033662
0.00033398066
0.00036274503
0.00037523907
0.00037632284
0.00037089137
0.00035313891
0.00031989692
0.00028513038
0.00025428268
0.00021695474
8.4960011e-05
8.5490159e-05
0.00023757212
0.00030909496
0.00031844355
0.00032986227
0.00033906155
0.00034560159
0.00034817783
0.00034759856
0.00034472698
0.00033914173
0.0003305058
0.00031997619
0.00030791147
0.00030090391
0.00022504378
0.00012776464
0.00011852098
0.00029784833
0.00030956733
0.00032950916
0.00033776558
0.00034239002
0.0003451055
0.0003466369
0.00034705908
0.00034646495
0.00034502594
0.00034288307
0.0003401658
0.00033652979
0.0003314821
0.00032344009
0.00030086917
0.00028704661
0.00022459163
0.0001176822
0.0003081694
0.00032332107
0.00033351462
0.00034117369
0.00034532646
0.00034767734
0.00034908428
0.00035015467
0.0003511944
0.00035201455
0.00035229409
0.00035085591
0.00034818925
0.00034512516
0.00034197197
0.00033770945
0.00032969672
0.00031983122
0.00030804761
0.00023273848
7.7970104e-05
0.00028685639
0.00031984669
0.00033487162
0.00034192683
0.00034623152
0.0003489716
0.00035088231
0.00035264868
0.0003550416
0.00035850515
0.00036119229
0.00036251824
0.00036089591
0.00035706482
0.00035193625
0.00034805869
0.00034480879
0.00034083579
0.00033501796
0.00032320976
0.00029777046
0.0002121161
0.00022472231
0.00030069769
0.00032953036
0.00034067282
0.00034595181
0.00034933677
0.00035190327
0.00035440019
0.0003576227
0.00036246318
0.00036736685
0.00037118135
0.00037323846
0.00037109325
0.00036593134
0.00035913379
0.00035306927
0.00034924002
0.00034614092
0.0003421325
0.00033365469
0.00030969046
0.00023829601
0.00010065299
0.00014964656
0.00030085686
0.00032335003
0.00033763478
0.00034474956
0.00034919657
0.00035278485
0.00035611224
0.00036009772
0.00036485996
0.00037014678
0.0003754006
0.00037983276
0.00038228013
0.00037964684
0.0003735166
0.00036565602
0.00035783557
0.00035276158
0.000349562
0.00034649356
0.00034138646
0.00032969012
0.00030940939
0.00030688972
0.00025391982
0.00030786299
0.00033150271
0.0003420644
0.00034828175
0.00035342434
0.00035853003
0.00036342932
0.00036789049
0.00037227003
0.00037679849
0.00038129403
0.00038554814
0.00038796319
0.00038528841
0.00037899206
0.00037096795
0.00036275417
0.00035606828
0.00035215346
0.00034929082
0.00034559843
0.00033790639
0.00031821791
0.00026943248
9.259678e-05
7.6456543e-05
0.00028526441
0.00032009981
0.00033672765
0.00034555048
0.00035283571
0.00036026634
0.00036689026
0.00037216969
0.00037608487
0.0003792955
0.00038232954
0.00038526821
0.00038831637
0.0003904526
0.00038803745
0.00038232767
0.00037505197
0.00036732794
0.00035989196
0.00035461144
0.00035124949
0.00034802756
0.00034260745
0.00032974554
0.00029942515
0.00022727849
0.00013726004
0.0003200701
0.0003306593
0.00034055799
0.00034923565
0.00035845878
0.00036759407
0.00037535174
0.00038084085
0.00038397435
0.00038602531
0.00038871981
0.00039296539
0.00039339824
0.00039577687
0.00039094661
0.00038482108
0.00037853543
0.00037187865
0.00036474249
0.00035774161
0.0003530323
0.00034950249
0.0003454087
0.00033902631
0.00033289786
0.00034484502
0.0002912451
0.0003518659
0.00033897732
0.00034333909
0.0003521911
0.00036271668
0.00037331795
0.00038215996
0.00038787611
0.00039041581
0.00039269875
0.00040139617
0.00042720697
0.00042226574
0.00042672961
0.00040119972
0.00038830454
0.00038192773
0.00037657516
0.00037012048
0.00036260229
0.00035542994
0.00035059381
0.00034688159
0.00034507667
0.00036019593
0.00042415418
0.00010835902
0.00038611459
0.00036097482
0.00034287944
0.00034535066
0.00035390007
0.0003647764
0.00037598365
0.00038533876
0.00039115203
0.00039350249
0.00039833393
0.00042756687
0.00052044763
0.00053877242
0.00053984453
0.0004286962
0.00039339882
0.00038517483
0.00038116905
0.00037540717
0.00036752536
0.00035875936
0.0003515421
0.00034698838
0.00034553142
0.00036183957
0.00045609038
0.00015013846
0.00032752206
0.00034014868
0.00034211997
0.00034638574
0.00035365609
0.00036359572
0.00037408081
0.00038303008
0.00038889066
0.00039160665
0.00039650426
0.00042460511
0.0005433434
0.00022060104
0.00042138556
0.00042551028
0.00039404546
0.00038798136
0.00038510975
0.00037962353
0.00037124975
0.00036138707
0.00035211959
0.00034600404
0.00034210467
0.00034027856
0.0003280589
0.000104606
0.00035462058
0.00036175191
0.00034563249
0.00034722708
0.00035231908
0.00036063992
0.00037000181
0.00037831956
0.0003843194
0.00038818561
0.00039536427
0.00042759151
0.00054165399
0.00045189511
0.0005525314
0.0004297809
0.00039627071
0.00039001081
0.00038736652
0.00038184961
0.00037303486
0.00036242542
0.00035218021
0.00034490485
0.00034287581
0.00036116529
0.00043168283
0.0001410763
0.00037447711
0.00036028351
0.00034526658
0.00034707743
0.00035101331
0.00035657117
0.00036454527
0.00037241457
0.00037906441
0.00038436489
0.00039023971
0.00040188559
0.00042751946
0.00042239987
0.00042594877
0.00040171134
0.00039133626
0.00038791122
0.0003848652
0.00037915889
0.00037062331
0.00036043475
0.00035039945
0.0003427408
0.00033877918
0.00035182005
0.00044800988
0.00014606136
0.0001953473
0.00033317641
0.00033929331
0.00034561161
0.00034975845
0.00035360739
0.00035913444
0.00036649709
0.00037383017
0.00038062847
0.0003869522
0.00039301289
0.00039806844
0.0003957426
0.00039482556
0.00038966272
0.0003856932
0.00038267439
0.0003789662
0.00037331037
0.00036564367
0.00035674099
0.0003479118
0.00034007341
0.00033037581
0.00031984296
0.00037297989
0.00012498415
0.00029966544
0.00033003446
0.00034284014
0.0003482257
0.00035152574
0.00035523052
0.00036117714
0.00036889309
0.00037687658
0.00038447971
0.0003905737
0.00039343968
0.00039151668
0.00038818724
0.00038407497
0.00037990957
0.00037580529
0.00037127821
0.00036570559
0.00035903895
0.00035186081
0.00034508866
0.00033655839
0.00032004723
0.0002855045
0.00029151756
0.00026952754
0.00031849634
0.00033816894
0.0003457997
0.00034946317
0.00035241126
0.00035665836
0.00036400976
0.00037258465
0.0003810638
0.00038792542
0.0003912726
0.0003891627
0.00038463036
0.0003791314
0.0003735869
0.00036839289
0.00036332907
0.00035811552
0.00035322103
0.00034818379
0.00034208961
0.00033162201
0.0003081739
0.00025522076
0.00012522926
0.00023558374
0.00030978251
0.00032999015
0.00034157747
0.00034663118
0.0003497021
0.00035310519
0.00035882061
0.00036704519
0.00037538673
0.00038214264
0.00038562286
0.00038358049
0.00037883245
0.00037275372
0.00036660582
0.00036111914
0.00035671115
0.00035317553
0.00034955928
0.00034506537
0.00033791869
0.00032355992
0.00030068983
0.00032912339
7.4438161e-05
8.8009228e-05
0.0002388248
0.00030981245
0.00033377187
0.00034224282
0.00034623445
0.00034940344
0.00035352209
0.00036024592
0.00036750277
0.0003732392
0.0003763436
0.00037480047
0.00037066205
0.00036507488
0.00035950152
0.00035561717
0.00035281172
0.00035007219
0.00034655954
0.00034117798
0.00033003532
0.0003013706
0.00022601333
0.00021062812
0.00013084535
0.00029739945
0.0003231282
0.00033508159
0.00034091147
0.00034489841
0.00034830928
0.00035271487
0.00035829076
0.00036258801
0.00036515507
0.00036439732
0.00036140153
0.00035724198
0.00035422925
0.00035210805
0.00034998625
0.00034708504
0.00034261527
0.00033537032
0.00032010567
0.00028812066
0.0002577446
0.00023513816
0.00030792595
0.00031979216
0.00032977678
0.00033776083
0.00034207767
0.00034543872
0.00034903996
0.0003520848
0.00035437221
0.00035462463
0.00035326011
0.00035183095
0.00035047999
0.00034887196
0.00034635486
0.00034205297
0.00033414333
0.00032335281
0.00030820396
0.0003246944
0.00010733303
0.00023277115
0.00028732917
0.00030092216
0.00032338401
0.00033149604
0.00033658481
0.00034040595
0.00034356884
0.00034641054
0.00034818106
0.00034863877
0.00034808313
0.00034641737
0.00034353358
0.00033877315
0.00033058437
0.00031025466
0.00029740414
0.00032914102
0.00011455559
0.00020011385
0.00022515097
0.00030053637
0.00030784011
0.00031979764
0.0003303471
0.00033957015
0.00034585074
0.00034893344
0.00034957233
0.00034706968
0.00034045166
0.00033091509
0.00031922471
0.00031082983
0.00024007523
0.00027319585
0.00011021436
9.9260388e-05
0.00029572546
0.00025432733
0.00028472811
0.00031922939
0.00035309219
0.00037171954
0.00037750731
0.00037659766
0.00036449928
0.00033567687
0.0003010947
0.00027023275
0.0003423427
0.00022434358
8.3149377e-05
0.00021330887
0.0003290012
0.00041452745
0.00046734386
0.00047978739
0.00047912362
0.00045959601
0.00038859149
0.00030733597
0.00014024766
8.1496261e-05
0.00010757167
0.00015609777
0.00016038976
0.0001607001
0.00014872012
9.2031172e-05
0.00016018209
0.00031368342
0.0004279108
0.00043777009
0.00043208096
0.00039481246
0.00018807223
0.00012173139
0.00017116731
0.00029635067
0.00032564285
0.00035943889
0.00038898907
0.00040119358
0.00040128845
0.00039482068
0.00037517963
0.00033968008
0.00030344133
0.00027204154
0.00023285659
9.1042838e-05
9.4657456e-05
0.00026015942
0.00033583038
0.00034582605
0.00035696713
0.00036583193
0.00037184416
0.00037367399
0.00037224476
0.00036855927
0.00036198501
0.00035219097
0.00034083242
0.00032839388
0.00032118432
0.00024110725
0.0001380263
0.00012984843
0.000323658
0.00033614021
0.00035711736
0.00036544778
0.0003695024
0.00037144723
0.00037215183
0.00037183511
0.00037065206
0.00036870825
0.00036595078
0.00036269151
0.00035885324
0.00035385887
0.00034590552
0.0003224887
0.00030878836
0.00024294006
0.00012814169
0.00033296278
0.00034986392
0.00036065147
0.0003684387
0.00037222112
0.00037384479
0.00037446136
0.00037484261
0.00037551595
0.00037630766
0.00037651144
0.00037450041
0.00037124404
0.00036806227
0.00036523259
0.00036153748
0.00035392584
0.00034460059
0.00033300094
0.00025232924
8.446071e-05
0.0003084956
0.00034453837
0.00036093912
0.00036831421
0.00037237899
0.00037458922
0.00037580596
0.00037697952
0.00037915295
0.0003830133
0.00038635727
0.00038793633
0.00038557889
0.0003808437
0.00037518574
0.00037152159
0.00036903193
0.00036602323
0.00036113556
0.00034983577
0.00032367596
0.00023270807
0.00024068605
0.00032225926
0.00035372234
0.00036582371
0.0003711583
0.00037417434
0.00037621455
0.00037818634
0.00038122019
0.00038653539
0.00039240919
0.00039739898
0.0004000386
0.0003969745
0.00039052372
0.00038276728
0.00037648811
0.00037333785
0.00037137225
0.00036855882
0.00036083888
0.0003363053
0.00026089553
0.00011288561
0.00016073292
0.00032102702
0.0003457631
0.00036142458
0.00036894783
0.00037329488
0.00037654914
0.00037949973
0.00038326077
0.00038824091
0.00039424595
0.0004007557
0.0004066863
0.00040997211
0.00040629682
0.0003986211
0.00038952575
0.00038110054
0.00037648052
0.00037439725
0.00037265645
0.00036867176
0.00035731
0.0003361386
0.00033274141
0.00027148113
0.00032825557
0.00035382929
0.00036530256
0.00037176507
0.00037691996
0.00038195884
0.00038677287
0.00039111394
0.00039561305
0.00040073095
0.00040646452
0.00041223613
0.00041552312
0.00041182762
0.00040400832
0.00039477445
0.00038590787
0.00037937262
0.00037643029
0.00037489672
0.00037248979
0.00036558634
0.0003456238
0.000295283
0.00010532266
8.1000285e-05
0.0003032691
0.00034085437
0.00035901543
0.00036851676
0.00037621391
0.00038412453
0.00039104313
0.00039627143
0.00039982961
0.00040275314
0.00040596099
0.00040990722
0.00041419782
0.00041698642
0.00041362777
0.00040669239
0.00039853503
0.00039036159
0.00038291983
0.00037832733
0.00037613689
0.00037417583
0.0003697126
0.000356879
0.00032502837
0.0002469354
0.00014381722
0.0003393555
0.00035222806
0.00036307959
0.00037242892
0.00038249106
0.00039255023
0.0004008926
0.0004062957
0.00040870522
0.00040995209
0.00041233208
0.00041738899
0.00041869662
0.00042136941
0.00041549635
0.00040849547
0.00040179426
0.00039504964
0.00038797388
0.00038122575
0.00037730333
0.00037484958
0.00037174152
0.00036584465
0.00035897897
0.00036744061
0.00030359017
0.00037348957
0.00036167984
0.00036642377
0.0003760447
0.00038776867
0.00039972808
0.00040943399
0.00041503627
0.00041650982
0.00041758987