/*--------------------------------*- C++ -*----------------------------------*\
| =========                 |                                                 |
| \\      /  F ield         | OpenFOAM: The Open Source CFD Toolbox           |
|  \\    /   O peration     | Version:  2406                                  |
|   \\  /    A nd           | Website:  www.openfoam.com                      |
|    \\/     M anipulation  |                                                 |
\*---------------------------------------------------------------------------*/
FoamFile
{
    version     2.0;
    format      ascii;
    arch        "LSB;label=32;scalar=64";
    class       volScalarField;
    location    "50";
    object      nut;
}
// * * * * * * * * * * * * * * * * * * * * * * * * * * * * * * * * * * * * * //

dimensions      [0 2 -1 0 0 0 0];

internalField   nonuniform List<scalar> 
150387
(
8.7478946e-06
1.9730235e-05
2.2359562e-05
2.3424447e-05
2.3277351e-05
2.1269198e-05
8.745125e-06
1.7551009e-06
7.0133002e-07
1.4871351e-05
2.010914e-05
2.4111421e-05
2.6591161e-05
2.8180195e-05
2.8922376e-05
2.9132069e-05
2.8432625e-05
2.6258203e-05
2.3397708e-05
1.8199016e-05
1.1088899e-05
1.2433115e-05
2.0706717e-05
2.2935501e-05
2.4304516e-05
2.5472401e-05
2.6560986e-05
2.7388164e-05
2.797082e-05
2.8279272e-05
2.816581e-05
2.7626667e-05
2.6733636e-05
2.5463049e-05
2.3864747e-05
1.7845678e-05
4.4755753e-06
7.0035219e-07
1.8395852e-05
2.2121846e-05
2.4103722e-05
2.501746e-05
2.5730942e-05
2.6301282e-05
2.6966977e-05
2.7566237e-05
2.8067471e-05
2.835908e-05
2.835925e-05
2.8205409e-05
2.77877e-05
2.7188297e-05
2.627392e-05
2.4189834e-05
2.1766907e-05
1.1541197e-05
6.0976481e-07
1.9947097e-05
2.3910551e-05
2.4850254e-05
2.5562608e-05
2.5976645e-05
2.6466062e-05
2.6956744e-05
2.758253e-05
2.8175507e-05
2.8597494e-05
2.8818304e-05
2.8804483e-05
2.8647398e-05
2.8216473e-05
2.7691741e-05
2.7005838e-05
2.6058359e-05
2.4934489e-05
2.3022131e-05
1.4227262e-05
1.8584375e-05
2.4281697e-05
2.5598754e-05
2.5997577e-05
2.6373507e-05
2.6686082e-05
2.7138826e-05
2.7665912e-05
2.8323265e-05
2.8790786e-05
2.9171715e-05
2.9413848e-05
2.9339145e-05
2.9076232e-05
2.862975e-05
2.8016043e-05
2.735076e-05
2.6637931e-05
2.5890562e-05
2.477663e-05
2.2300779e-05
1.1110216e-05
1.2789758e-05
2.3160327e-05
2.5722333e-05
2.6476412e-05
2.6762208e-05
2.7078094e-05
2.7409172e-05
2.7881593e-05
2.8440095e-05
2.893446e-05
2.9471866e-05
2.9906045e-05
3.0164379e-05
3.0010351e-05
2.9608409e-05
2.9036803e-05
2.83577e-05
2.7612864e-05
2.6888271e-05
2.6192147e-05
2.534297e-05
2.3671684e-05
1.875146e-05
3.7520545e-06
7.7080584e-07
2.1794413e-05
2.5705514e-05
2.6822722e-05
2.7257086e-05
2.7514914e-05
2.7853602e-05
2.8249192e-05
2.8647556e-05
2.9099255e-05
2.9643946e-05
3.0225646e-05
3.0694659e-05
3.093311e-05
3.0694956e-05
3.0165708e-05
2.9472945e-05
2.8768126e-05
2.7957787e-05
2.7198387e-05
2.6512752e-05
2.582145e-05
2.4824669e-05
2.2684329e-05
1.7073679e-05
1.5700202e-05
2.4966472e-05
2.7049932e-05
2.7649809e-05
2.7994803e-05
2.8332376e-05
2.8646446e-05
2.8976715e-05
2.9383046e-05
2.9835883e-05
3.0372643e-05
3.0928891e-05
3.1394458e-05
3.1585916e-05
3.1293181e-05
3.0681742e-05
2.9909315e-05
2.9130675e-05
2.8344249e-05
2.7545192e-05
2.6816098e-05
2.6153527e-05
2.5409469e-05
2.4033022e-05
2.0859869e-05
4.0289623e-06
2.1543786e-05
2.6402661e-05
2.7773204e-05
2.8267524e-05
2.8619229e-05
2.8960188e-05
2.9359433e-05
2.9768372e-05
3.0185896e-05
3.0613299e-05
3.1090892e-05
3.1527594e-05
3.1926587e-05
3.2039967e-05
3.1739516e-05
3.1115348e-05
3.0334714e-05
2.9546401e-05
2.8813808e-05
2.8009271e-05
2.7264908e-05
2.6602508e-05
2.5955758e-05
2.4981958e-05
2.267843e-05
1.4450177e-05
3.035763e-06
2.5265946e-05
2.7488808e-05
2.8314302e-05
2.8699466e-05
2.9104107e-05
2.9599687e-05
3.0122704e-05
3.0611191e-05
3.1033291e-05
3.1400612e-05
3.1763223e-05
3.2001262e-05
3.2200963e-05
3.2276738e-05
3.2046489e-05
3.1479382e-05
3.0754249e-05
3.0000133e-05
2.9271688e-05
2.8571571e-05
2.780564e-05
2.7097106e-05
2.6456993e-05
2.5760492e-05
2.4570377e-05
2.0924284e-05
1.960658e-05
2.7824112e-05
2.8137734e-05
2.8531887e-05
2.8915772e-05
2.9448311e-05
3.0105325e-05
3.0774764e-05
3.1356813e-05
3.179701e-05
3.2098343e-05
3.2328982e-05
3.2397992e-05
3.2057919e-05
3.2356895e-05
3.2327639e-05
3.1829642e-05
3.1204703e-05
3.0521485e-05
2.9814156e-05
2.910259e-05
2.8412096e-05
2.7706849e-05
2.7057385e-05
2.655104e-05
2.6312108e-05
2.6040972e-05
2.1960859e-06
2.2227951e-05
2.8671042e-05
2.8284983e-05
2.8568615e-05
2.8998609e-05
2.9628001e-05
3.0402181e-05
3.1179818e-05
3.1834028e-05
3.2285914e-05
3.2536109e-05
3.2770009e-05
3.3794892e-05
2.9331604e-05
3.2038427e-05
3.2882266e-05
3.2079791e-05
3.1601749e-05
3.1054323e-05
3.0390549e-05
2.9665265e-05
2.8944752e-05
2.8279441e-05
2.7638476e-05
2.7206494e-05
2.7379225e-05
2.8401626e-05
7.055624e-06
1.9733498e-05
2.7013219e-05
2.7740022e-05
2.824857e-05
2.8819373e-05
2.9459052e-05
3.0255449e-05
3.1078651e-05
3.1790091e-05
3.2318693e-05
3.2582807e-05
3.2463602e-05
2.9727604e-05
2.1028755e-06
1.0082654e-05
3.1757663e-05
3.219128e-05
3.1960257e-05
3.1501262e-05
3.0858405e-05
3.0112155e-05
2.9336424e-05
2.8695169e-05
2.8039211e-05
2.7513547e-05
2.7063061e-05
2.5696321e-05
6.9670188e-06
2.1291758e-05
2.7585472e-05
2.7472692e-05
2.7840274e-05
2.8498564e-05
2.9098721e-05
2.9845342e-05
3.0641415e-05
3.1363899e-05
3.1954216e-05
3.237318e-05
3.2691881e-05
3.2427834e-05
1.1892926e-05
2.7037085e-05
3.2645083e-05
3.2398852e-05
3.2128173e-05
3.1724721e-05
3.1125783e-05
3.0386722e-05
2.9598379e-05
2.8929804e-05
2.835142e-05
2.795181e-05
2.8027552e-05
2.8032849e-05
7.366301e-06
2.0504875e-05
2.7118805e-05
2.6888389e-05
2.7248389e-05
2.7900732e-05
2.8609346e-05
2.9275858e-05
3.0024774e-05
3.0760016e-05
3.1452679e-05
3.2069753e-05
3.2646301e-05
3.3295943e-05
3.1898074e-05
3.2611494e-05
3.2723921e-05
3.2256927e-05
3.1885742e-05
3.1444843e-05
3.0869736e-05
3.0187362e-05
2.948641e-05
2.8882506e-05
2.8334502e-05
2.798392e-05
2.811649e-05
2.8588818e-05
6.4344047e-06
8.5582055e-06
2.4671529e-05
2.5859729e-05
2.6560037e-05
2.7240792e-05
2.7979144e-05
2.8715394e-05
2.9408482e-05
3.0151777e-05
3.0920703e-05
3.1672859e-05
3.2345445e-05
3.2739572e-05
3.2561965e-05
3.2388508e-05
3.2115995e-05
3.171909e-05
3.1299382e-05
3.0847952e-05
3.0328918e-05
2.9758566e-05
2.9196389e-05
2.868159e-05
2.8230201e-05
2.7762324e-05
2.7091039e-05
2.4761692e-05
2.2775092e-06
2.0976581e-06
2.1714395e-05
2.4724363e-05
2.5929285e-05
2.6650491e-05
2.734908e-05
2.8126718e-05
2.8880011e-05
2.9617965e-05
3.041959e-05
3.1251718e-05
3.199851e-05
3.2445092e-05
3.2399214e-05
3.2028346e-05
3.1550352e-05
3.1038008e-05
3.054433e-05
3.007875e-05
2.960834e-05
2.9145623e-05
2.8660955e-05
2.823571e-05
2.7864543e-05
2.7229633e-05
2.5457342e-05
1.9404567e-05
1.6746155e-05
2.3361555e-05
2.5265476e-05
2.61283e-05
2.6827316e-05
2.7565789e-05
2.8385765e-05
2.9154596e-05
2.9958355e-05
3.0810141e-05
3.1561783e-05
3.2034124e-05
3.1956137e-05
3.1514076e-05
3.091442e-05
3.0309571e-05
2.9773551e-05
2.9296518e-05
2.8863511e-05
2.8417108e-05
2.8032309e-05
2.7708421e-05
2.7376648e-05
2.6404387e-05
2.3421164e-05
8.6188504e-06
1.1304517e-05
2.24369e-05
2.4640217e-05
2.5720963e-05
2.6455388e-05
2.7159103e-05
2.7953732e-05
2.8762155e-05
2.9508493e-05
3.0309776e-05
3.0992244e-05
3.1425539e-05
3.1300451e-05
3.0839085e-05
3.0209875e-05
2.9584493e-05
2.9039062e-05
2.8487542e-05
2.8045309e-05
2.7648753e-05
2.7359038e-05
2.7083718e-05
2.6650504e-05
2.523313e-05
2.1423998e-05
2.1004205e-06
1.7145383e-05
2.2949655e-05
2.5093485e-05
2.6088044e-05
2.6818795e-05
2.7567411e-05
2.8377675e-05
2.9078242e-05
2.977203e-05
3.032256e-05
3.0670694e-05
3.0522594e-05
3.0082359e-05
2.9485201e-05
2.8876533e-05
2.8261162e-05
2.7684492e-05
2.7274432e-05
2.6926489e-05
2.668072e-05
2.6324585e-05
2.5291493e-05
2.1746227e-05
1.0604938e-05
4.3484773e-06
2.1226253e-05
2.4469781e-05
2.5789804e-05
2.6562255e-05
2.7291375e-05
2.8029854e-05
2.869919e-05
2.9245264e-05
2.9638756e-05
2.9869397e-05
2.9695799e-05
2.9298761e-05
2.8761516e-05
2.8113013e-05
2.7485303e-05
2.695518e-05
2.6584745e-05
2.6253619e-05
2.6004529e-05
2.5474598e-05
2.3893457e-05
1.6924288e-05
1.0351601e-06
1.174586e-05
2.2985745e-05
2.5089566e-05
2.6133162e-05
2.6986696e-05
2.7715084e-05
2.8307931e-05
2.8800862e-05
2.9051685e-05
2.9174575e-05
2.9006439e-05
2.8619474e-05
2.8039627e-05
2.7385727e-05
2.6793213e-05
2.6290087e-05
2.5924203e-05
2.5484979e-05
2.5075613e-05
2.4218796e-05
2.0896581e-05
4.6071837e-06
1.4600573e-05
2.2834469e-05
2.4787521e-05
2.6371719e-05
2.7338992e-05
2.7940505e-05
2.83976e-05
2.859219e-05
2.8641363e-05
2.8418706e-05
2.7957894e-05
2.7367651e-05
2.6714384e-05
2.6143805e-05
2.5603453e-05
2.5126708e-05
2.4127959e-05
2.3232092e-05
2.0888383e-05
6.8316227e-06
1.1131087e-05
1.9633563e-05
2.4175204e-05
2.6159249e-05
2.714806e-05
2.783625e-05
2.8204386e-05
2.83116e-05
2.805676e-05
2.7552099e-05
2.6892971e-05
2.6075948e-05
2.5295778e-05
2.4385177e-05
2.3599671e-05
2.0731393e-05
1.7317374e-05
5.0141931e-06
3.7799759e-06
1.7258007e-05
2.2567391e-05
2.4745032e-05
2.6620839e-05
2.8033384e-05
2.8682902e-05
2.8551782e-05
2.7976549e-05
2.6943312e-05
2.5354616e-05
2.3487261e-05
2.1606755e-05
2.058673e-05
1.0486098e-05
1.0203494e-06
4.1430859e-06
1.5276732e-05
2.1936388e-05
2.7134494e-05
2.9546564e-05
2.9909995e-05
2.9437326e-05
2.7854823e-05
2.3879217e-05
1.8288666e-05
8.3799897e-06
2.1362146e-06
2.1296434e-06
7.4417429e-06
8.0365119e-06
7.8759806e-06
5.5299838e-06
2.246888e-06
2.6331842e-06
9.5668963e-06
3.3288648e-05
4.7454973e-05
4.9435728e-05
4.8953603e-05
4.4172354e-05
1.2946724e-05
5.7636694e-06
7.6990611e-06
4.7485227e-05
5.4197e-05
5.9816063e-05
6.5105574e-05
6.773867e-05
6.8781814e-05
6.8687725e-05
6.6605994e-05
6.165866e-05
5.6114282e-05
4.8766545e-05
2.5279501e-05
2.681526e-06
3.1191456e-06
4.0479953e-05
5.5329955e-05
5.8799169e-05
6.166571e-05
6.400344e-05
6.6126546e-05
6.7666278e-05
6.8728022e-05
6.9255784e-05
6.8903568e-05
6.7496479e-05
6.5319664e-05
6.2143311e-05
5.7054512e-05
3.9742395e-05
8.470203e-06
4.6495565e-06
5.3083235e-05
5.7525442e-05
6.1375105e-05
6.3045152e-05
6.4444502e-05
6.5723183e-05
6.7091053e-05
6.8347651e-05
6.9381806e-05
7.0004337e-05
6.9936045e-05
6.9328091e-05
6.8240646e-05
6.6691778e-05
6.422458e-05
5.9012976e-05
5.288899e-05
2.5201395e-05
4.6616037e-06
5.5377469e-05
6.0987869e-05
6.2766615e-05
6.4139682e-05
6.5028087e-05
6.6035634e-05
6.7146247e-05
6.8432814e-05
6.9681071e-05
7.0686126e-05
7.1216437e-05
7.0989948e-05
7.0352575e-05
6.9338814e-05
6.8111585e-05
6.6544462e-05
6.4241407e-05
6.1353817e-05
5.5352483e-05
2.7005002e-05
2.9971397e-06
5.2870274e-05
6.1494872e-05
6.4198132e-05
6.5075923e-05
6.5808785e-05
6.6540405e-05
6.7508615e-05
6.8673936e-05
7.0008575e-05
7.1271983e-05
7.229179e-05
7.2774869e-05
7.2323998e-05
7.1417339e-05
7.0210142e-05
6.8858464e-05
6.7419314e-05
6.5862919e-05
6.4068516e-05
6.0878176e-05
5.3023332e-05
2.3634239e-05
3.9625765e-05
5.9142372e-05
6.4393649e-05
6.6018196e-05
6.6662617e-05
6.7317012e-05
6.808708e-05
6.9107134e-05
7.0323172e-05
7.1646176e-05
7.3007745e-05
7.4097081e-05
7.4509372e-05
7.3845674e-05
7.2649957e-05
7.1143949e-05
6.9586902e-05
6.8015649e-05
6.6504008e-05
6.4948837e-05
6.2654579e-05
5.7445414e-05
4.0657988e-05
4.3265144e-06
7.7098901e-06
5.7161016e-05
6.4394218e-05
6.6730769e-05
6.7618703e-05
6.8225799e-05
6.8944181e-05
6.9791211e-05
7.0805431e-05
7.1964523e-05
7.3307655e-05
7.4677698e-05
7.5755127e-05
7.6067351e-05
7.5260602e-05
7.386045e-05
7.2143301e-05
7.042411e-05
6.8731709e-05
6.7157704e-05
6.5682043e-05
6.4026908e-05
6.1260636e-05
5.519464e-05
3.8217338e-05
4.8932588e-05
6.2348835e-05
6.6909896e-05
6.8343562e-05
6.9108679e-05
6.985435e-05
7.0685738e-05
7.157281e-05
7.2558196e-05
7.3654083e-05
7.4867069e-05
7.6054739e-05
7.7005336e-05
7.7189987e-05
7.636748e-05
7.4908335e-05
7.3121679e-05
7.1307705e-05
6.9575046e-05
6.7926369e-05
6.6414888e-05
6.491881e-05
6.2918604e-05
5.8585889e-05
4.6961045e-05
5.3469585e-06
2.7388851e-06
5.6355581e-05
6.55583e-05
6.8495608e-05
6.9613665e-05
7.0503016e-05
7.1461452e-05
7.2480169e-05
7.3461934e-05
7.4392661e-05
7.5319294e-05
7.6236117e-05
7.6983963e-05
7.7622453e-05
7.7745286e-05
7.7099799e-05
7.5756132e-05
7.4063071e-05
7.2299044e-05
7.0602973e-05
6.8943222e-05
6.7379884e-05
6.5925637e-05
6.4311578e-05
6.1420348e-05
5.370276e-05
2.7183655e-05
8.8375263e-06
6.1755487e-05
6.7718723e-05
6.9606383e-05
7.0646815e-05
7.1762487e-05
7.3036034e-05
7.427427e-05
7.5332298e-05
7.6171979e-05
7.6856953e-05
7.7419837e-05
7.7504981e-05
7.7158505e-05
7.7824829e-05
7.757123e-05
7.6462608e-05
7.5004339e-05
7.3403116e-05
7.176263e-05
7.0158542e-05
6.8538247e-05
6.7036467e-05
6.5603046e-05
6.3815813e-05
5.9462447e-05
4.3681307e-05
3.3666743e-05
6.6519225e-05
6.9040204e-05
7.0217114e-05
7.1319001e-05
7.2725369e-05
7.4301004e-05
7.5761225e-05
7.6882559e-05
7.7618627e-05
7.8064116e-05
7.7714485e-05
7.5921134e-05
7.22546e-05
7.5892172e-05
7.7173344e-05
7.7056752e-05
7.5933184e-05
7.4613235e-05
7.3099333e-05
7.1474105e-05
6.9854175e-05
6.8299539e-05
6.6942211e-05
6.5889733e-05
6.4644051e-05
5.5614919e-05
2.9151854e-06
4.6495917e-05
6.781047e-05
6.9150801e-05
7.0233334e-05
7.1551906e-05
7.3211092e-05
7.5024577e-05
7.663672e-05
7.7783427e-05
7.8357855e-05
7.8485539e-05
7.667378e-05
7.0777507e-05
5.8855872e-05
6.5959443e-05
7.5690577e-05
7.7245607e-05
7.6714583e-05
7.5810543e-05
7.4463472e-05
7.282522e-05
7.1113406e-05
6.9525715e-05
6.8141013e-05
6.7190302e-05
6.6422381e-05
6.1181695e-05
7.2736851e-06
5.6615122e-05
6.5915808e-05
6.8202484e-05
6.9511269e-05
7.0991414e-05
7.2702876e-05
7.4587079e-05
7.6293969e-05
7.756772e-05
7.8227228e-05
7.7860826e-05
7.3052158e-05
5.9844572e-05
3.4799117e-06
2.2444844e-05
7.2368558e-05
7.7060943e-05
7.7434958e-05
7.6808297e-05
7.5566266e-05
7.3911083e-05
7.2107229e-05
7.0482719e-05
6.9033372e-05
6.7783181e-05
6.5598958e-05
5.6439307e-05
6.6774237e-06
4.4938024e-05
6.6637086e-05
6.7538738e-05
6.8558503e-05
7.0014784e-05
7.1644661e-05
7.3439347e-05
7.5140402e-05
7.6535869e-05
7.749084e-05
7.8027924e-05
7.6598332e-05
6.6749706e-05
2.5770685e-05
5.5540294e-05
7.6075522e-05
7.7901152e-05
7.7704226e-05
7.7118155e-05
7.5980835e-05
7.4400405e-05
7.2643382e-05
7.1047758e-05
6.9737373e-05
6.8712044e-05
6.7535068e-05
6.0561726e-05
7.4626794e-06
4.3313407e-05
6.4808353e-05
6.6169881e-05
6.728447e-05
6.8713459e-05
7.0327129e-05
7.1992678e-05
7.3666609e-05
7.523165e-05
7.6585816e-05
7.7720225e-05
7.8012871e-05
7.6620043e-05
7.2657951e-05
7.6027252e-05
7.7430823e-05
7.7690296e-05
7.7113171e-05
7.6326241e-05
7.5186146e-05
7.3745194e-05
7.2200263e-05
7.0839899e-05
6.9720414e-05
6.8575538e-05
6.6204007e-05
6.0384887e-05
5.5930075e-06
1.3478829e-05
5.9598515e-05
6.4027867e-05
6.5860052e-05
6.7354729e-05
6.8927087e-05
7.0586891e-05
7.2233658e-05
7.3912972e-05
7.5564386e-05
7.7068707e-05
7.8232693e-05
7.8510117e-05
7.7631437e-05
7.7664937e-05
7.7331641e-05
7.6631721e-05
7.5829343e-05
7.4915996e-05
7.382623e-05
7.2584226e-05
7.1324851e-05
7.0226581e-05
6.9159317e-05
6.7291834e-05
6.146162e-05
4.8856608e-05
6.6563427e-06
5.37673e-05
6.1558083e-05
6.4488431e-05
6.6147621e-05
6.7664011e-05
6.9290605e-05
7.098128e-05
7.2730397e-05
7.4547625e-05
7.6306405e-05
7.7723781e-05
7.8397665e-05
7.809353e-05
7.7257573e-05
7.6298273e-05
7.5230907e-05
7.4180669e-05
7.3159887e-05
7.2127194e-05
7.1085646e-05
7.011151e-05
6.9200411e-05
6.8071091e-05
6.5167964e-05
5.6130463e-05
3.8777679e-05
4.6999775e-05
5.8664392e-05
6.3035474e-05
6.5068577e-05
6.6615163e-05
6.8185721e-05
6.9896831e-05
7.1672365e-05
7.3554181e-05
7.5417689e-05
7.6955352e-05
7.7828558e-05
7.7473929e-05
7.6368885e-05
7.5019571e-05
7.3663469e-05
7.2454987e-05
7.1371421e-05
7.0427497e-05
6.9538585e-05
6.8764118e-05
6.7974624e-05
6.6526297e-05
6.201179e-05
4.8814023e-05
9.045575e-06
2.6447551e-05
5.521874e-05
6.1314089e-05
6.4105349e-05
6.5806305e-05
6.7338025e-05
6.8979913e-05
7.0727178e-05
7.2522791e-05
7.4322072e-05
7.580528e-05
7.6660584e-05
7.6204966e-05
7.5003662e-05
7.3510394e-05
7.2048808e-05
7.0778686e-05
6.9659623e-05
6.8744507e-05
6.7965561e-05
6.7319727e-05
6.6410861e-05
6.4078386e-05
5.7027021e-05
4.7394911e-05
2.3945143e-06
2.6570967e-06
4.0814301e-05
5.7466892e-05
6.2681634e-05
6.5019618e-05
6.6628088e-05
6.8207944e-05
6.9853873e-05
7.1469046e-05
7.3059681e-05
7.4327198e-05
7.5031282e-05
7.4509114e-05
7.3334918e-05
7.1878583e-05
7.0452576e-05
6.9139679e-05
6.8016532e-05
6.7168179e-05
6.6448479e-05
6.5758995e-05
6.4110509e-05
5.8927657e-05
3.9921857e-05
2.425732e-05
8.4285609e-06
5.3036394e-05
6.0860222e-05
6.4092637e-05
6.5939812e-05
6.7559485e-05
6.9073113e-05
7.0487212e-05
7.1771018e-05
7.2741475e-05
7.3203848e-05
7.2648142e-05
7.1567364e-05
7.0244814e-05
6.8826793e-05
6.7560886e-05
6.6497666e-05
6.5685587e-05
6.488559e-05
6.395632e-05
6.1253423e-05
5.3097798e-05
3.5882013e-05
2.5937129e-05
5.5409233e-05
6.1348706e-05
6.4289065e-05
6.6646284e-05
6.8279302e-05
6.9576188e-05
7.0645876e-05
7.1338472e-05
7.154918e-05
7.0982168e-05
6.9963782e-05
6.8658074e-05
6.7283447e-05
6.6076266e-05
6.4984739e-05
6.4015001e-05
6.2578685e-05
6.0760672e-05
5.5465346e-05
4.6111618e-05
4.1395297e-06
2.6749913e-05
5.3036655e-05
5.905389e-05
6.429121e-05
6.6814857e-05
6.8432287e-05
6.9583155e-05
7.0233528e-05
7.0284696e-05
6.9646942e-05
6.8577185e-05
6.7259268e-05
6.580945e-05
6.4438947e-05
6.298431e-05
6.1263342e-05
5.7422333e-05
5.3053612e-05
4.6195297e-05
4.6420917e-06
2.2876419e-05
4.0089284e-05
5.7133463e-05
6.2250944e-05
6.5476644e-05
6.7690913e-05
6.9102845e-05
6.9466463e-05
6.8929034e-05
6.7830258e-05
6.6226223e-05
6.4008262e-05
6.1532664e-05
5.8639618e-05
5.5228701e-05
4.063686e-05
3.7228918e-05
4.1667021e-06
4.4386241e-06
3.7422976e-05
4.8898564e-05
5.6287984e-05
6.1757463e-05
6.6660227e-05
6.8820985e-05
6.8903151e-05
6.7793004e-05
6.5061058e-05
5.9656463e-05
5.3756785e-05
4.6998708e-05
4.7152477e-05
2.5546524e-05
5.1540906e-06
2.7583766e-05
4.3852233e-05
5.613484e-05
6.26468e-05
6.3926414e-05
6.335218e-05
6.0212217e-05
4.8675353e-05
3.8146607e-05
9.3986225e-06
2.439689e-06
2.9106281e-06
7.4721115e-06
8.1080611e-06
7.9836311e-06
5.5983798e-06
3.0173049e-06
9.1208218e-06
3.6680261e-05
5.6877455e-05
5.9029496e-05
5.844339e-05
5.2864707e-05
1.2231448e-05
6.4177154e-06
9.4169771e-06
5.8873695e-05
6.7505336e-05
7.3728658e-05
8.0291309e-05
8.355475e-05
8.4631633e-05
8.4277372e-05
8.1317082e-05
7.5006203e-05
6.8566798e-05
5.8787072e-05
3.0780498e-05
3.2795801e-06
3.3240065e-06
4.8713737e-05
6.9640256e-05
7.569537e-05
7.9200142e-05
8.1847993e-05
8.4246335e-05
8.5989308e-05
8.7157046e-05
8.7723963e-05
8.7253513e-05
8.5473784e-05
8.2776211e-05
7.8536882e-05
7.0469112e-05
4.6250702e-05
8.8526286e-06
5.0547355e-06
6.5467629e-05
7.3805284e-05
7.8959545e-05
8.1197604e-05
8.2792002e-05
8.4262088e-05
8.5765133e-05
8.7162181e-05
8.8316118e-05
8.8992271e-05
8.8944614e-05
8.8179211e-05
8.6906509e-05
8.4997446e-05
8.1612432e-05
7.4626639e-05
6.4625555e-05
2.9380491e-05
5.0344105e-06
6.8030009e-05
7.784556e-05
8.0888231e-05
8.2487886e-05
8.3539613e-05
8.4617793e-05
8.5778786e-05
8.7129139e-05
8.8435309e-05
8.9437599e-05
8.9929575e-05
8.9729361e-05
8.9115769e-05
8.8136819e-05
8.6848991e-05
8.5071968e-05
8.2378174e-05
7.8134399e-05
6.8047009e-05
3.0232143e-05
3.1685571e-06
6.459606e-05
7.825125e-05
8.2387392e-05
8.3591688e-05
8.4373406e-05
8.5168674e-05
8.6128896e-05
8.7305568e-05
8.8589433e-05
8.9713937e-05
9.0641249e-05
9.1048197e-05
9.0643991e-05
8.9840166e-05
8.8814418e-05
8.7567539e-05
8.6115355e-05
8.4429874e-05
8.2258452e-05
7.7744246e-05
6.5468635e-05
2.7960214e-05
4.6070572e-05
7.4720423e-05
8.2523969e-05
8.4590111e-05
8.5309172e-05
8.5945978e-05
8.6702658e-05
8.7683996e-05
8.877095e-05
8.9859183e-05
9.1023664e-05
9.1978535e-05
9.2305818e-05
9.1714512e-05
9.0685371e-05
8.9447937e-05
8.8144685e-05
8.667873e-05
8.5142907e-05
8.3460673e-05
8.0782702e-05
7.3733389e-05
4.9027325e-05
4.8105657e-06
9.2302714e-06
7.0534007e-05
8.177346e-05
8.5261284e-05
8.6320921e-05
8.689477e-05
8.751867e-05
8.8259559e-05
8.9078563e-05
9.0010361e-05
9.1124085e-05
9.2285375e-05
9.3203317e-05
9.34379e-05
9.2722085e-05
9.1538531e-05
9.0147296e-05
8.877634e-05
8.7305559e-05
8.5778085e-05
8.4240339e-05
8.2372255e-05
7.8851379e-05
6.9525235e-05
4.6698391e-05
5.8842088e-05
7.8706097e-05
8.5211918e-05
8.7082055e-05
8.7812642e-05
8.8400292e-05
8.9012658e-05
8.9670931e-05
9.0429188e-05
9.1317772e-05
9.2331467e-05
9.333095e-05
9.4116226e-05
9.4254315e-05
9.3524475e-05
9.2296963e-05
9.0860651e-05
8.9428963e-05
8.8043759e-05
8.6531139e-05
8.50369e-05
8.3422181e-05
8.1064485e-05
7.5461695e-05
5.8286527e-05
6.2275006e-06
2.887216e-06
6.8714533e-05
8.2990195e-05
8.715775e-05
8.839824e-05
8.9074503e-05
8.9725151e-05
9.0438757e-05
9.1154596e-05
9.186553e-05
9.2618415e-05
9.3394198e-05
9.3899176e-05
9.4369314e-05
9.4543312e-05
9.4062469e-05
9.2936479e-05
9.1578422e-05
9.0189266e-05
8.8886491e-05
8.75026e-05
8.5992952e-05
8.4499041e-05
8.2653634e-05
7.8970877e-05
6.697364e-05
3.1103037e-05
8.6913353e-06
7.5056842e-05
8.5682917e-05
8.844181e-05
8.9373491e-05
9.0135265e-05
9.1010172e-05
9.188148e-05
9.2644739e-05
9.3277666e-05
9.3800677e-05
9.4074309e-05
9.3852926e-05
9.3178606e-05
9.4137141e-05
9.4178723e-05
9.3466464e-05
9.2341272e-05
9.1081202e-05
8.9808356e-05
8.86065e-05
8.7147231e-05
8.5654768e-05
8.4130718e-05
8.1655283e-05
7.3436873e-05
5.1279061e-05
3.7146359e-05
8.1210524e-05
8.7368688e-05
8.9198878e-05
9.0007312e-05
9.0975689e-05
9.2084934e-05
9.3118719e-05
9.3931061e-05
9.4471855e-05
9.4598101e-05
9.3165061e-05
8.9602284e-05
8.4471569e-05
8.9618747e-05
9.261752e-05
9.3747522e-05
9.3124823e-05
9.2094642e-05
9.091412e-05
8.9675906e-05
8.8414627e-05
8.697404e-05
8.5597782e-05
8.4024977e-05
7.9852776e-05
6.6912942e-05
3.393969e-06
5.5621493e-05
8.3487411e-05
8.762314e-05
8.9183075e-05
9.0196289e-05
9.1389694e-05
9.2702372e-05
9.3872633e-05
9.470447e-05
9.5058832e-05
9.4712527e-05
9.050309e-05
8.6043844e-05
6.9645472e-05
7.9241733e-05
8.9423346e-05
9.3645334e-05
9.3660726e-05
9.3102985e-05
9.2073718e-05
9.0827984e-05
8.9534779e-05
8.824575e-05
8.6917835e-05
8.5624346e-05
8.2333218e-05
7.4911028e-05
8.0296997e-06
6.7579538e-05
8.2679718e-05
8.682798e-05
8.841123e-05
8.9671188e-05
9.0960352e-05
9.2354046e-05
9.3612612e-05
9.4540728e-05
9.4854304e-05
9.3772944e-05
8.547052e-05
7.0934636e-05
3.737847e-06
2.5087198e-05
8.4686336e-05
9.3162212e-05
9.4232714e-05
9.3950053e-05
9.3026561e-05
9.1785091e-05
9.0439708e-05
8.9212961e-05
8.7931751e-05
8.6403437e-05
8.2383272e-05
6.750734e-05
7.121692e-06
5.4162657e-05
8.2526825e-05
8.5983041e-05
8.734737e-05
8.8718934e-05
9.0003663e-05
9.1350238e-05
9.2628103e-05
9.3681894e-05
9.4286043e-05
9.4267771e-05
9.035318e-05
8.0128813e-05
2.8856648e-05
6.5987994e-05
8.9883762e-05
9.4250603e-05
9.4523078e-05
9.4195307e-05
9.3346855e-05
9.2180094e-05
9.0899727e-05
8.9753178e-05
8.8690794e-05
8.7183984e-05
8.323838e-05
7.4674279e-05
8.1236302e-06
5.2148994e-05
8.0007364e-05
8.4308085e-05
8.5948562e-05
8.7398258e-05
8.8845547e-05
9.0121252e-05
9.1394574e-05
9.2595311e-05
9.3640912e-05
9.432375e-05
9.3445213e-05
9.039799e-05
8.4947634e-05
8.9687426e-05
9.2853961e-05
9.4307461e-05
9.4083447e-05
9.3497101e-05
9.2660353e-05
9.1624875e-05
9.0532463e-05
8.9592918e-05
8.8715163e-05
8.6924033e-05
8.0935925e-05
7.3160417e-05
6.9769492e-06
1.277358e-05
7.3580608e-05
8.1870702e-05
8.4389833e-05
8.5975839e-05
8.7541164e-05
8.8958136e-05
9.021111e-05
9.1511219e-05
9.2795507e-05
9.3961709e-05
9.4746926e-05
9.4730495e-05
9.3559793e-05
9.3912757e-05
9.3964652e-05
9.3587369e-05
9.2992242e-05
9.2302483e-05
9.1508781e-05
9.0627172e-05
8.9756915e-05
8.899832e-05
8.8011483e-05
8.5283288e-05
7.4809142e-05
5.7150176e-05
6.7338548e-06
6.7039632e-05
7.9103911e-05
8.2835871e-05
8.4725989e-05
8.6274432e-05
8.7841574e-05
8.92059e-05
9.0558268e-05
9.198397e-05
9.3384295e-05
9.4564179e-05
9.5106802e-05
9.4754381e-05
9.4058446e-05
9.3364593e-05
9.249771e-05
9.1663871e-05
9.0887026e-05
9.0130813e-05
8.9396184e-05
8.8722898e-05
8.800301e-05
8.674212e-05
8.2646361e-05
6.8623505e-05
4.5189997e-05
5.8284978e-05
7.5549587e-05
8.1181361e-05
8.3577377e-05
8.5237887e-05
8.6787011e-05
8.8340371e-05
8.974452e-05
9.1227633e-05
9.2715947e-05
9.39913e-05
9.4720898e-05
9.4438666e-05
9.3503575e-05
9.2381166e-05
9.1271732e-05
9.0300966e-05
8.9470727e-05
8.8770112e-05
8.8093022e-05
8.7469619e-05
8.6708914e-05
8.4846596e-05
7.8463255e-05
5.8993908e-05
9.6864387e-06
3.2550525e-05
6.9603451e-05
7.8916776e-05
8.245335e-05
8.436723e-05
8.5959625e-05
8.7543968e-05
8.904182e-05
9.0474926e-05
9.1925452e-05
9.3154733e-05
9.3861447e-05
9.3502918e-05
9.2474066e-05
9.1221232e-05
9.001882e-05
8.9007203e-05
8.8104184e-05
8.7305649e-05
8.66183e-05
8.6006441e-05
8.493681e-05
8.1510035e-05
7.0533501e-05
5.8821014e-05
2.8969908e-06
3.3304326e-06
4.9313076e-05
7.3771259e-05
8.0811158e-05
8.3529781e-05
8.5268278e-05
8.6871121e-05
8.8396073e-05
8.9734e-05
9.1035188e-05
9.2107307e-05
9.2676332e-05
9.2246237e-05
9.1217823e-05
8.9980689e-05
8.881148e-05
8.7671064e-05
8.660378e-05
8.5775869e-05
8.5074454e-05
8.4317361e-05
8.2281918e-05
7.4696026e-05
4.7151953e-05
2.8418903e-05
8.9692848e-06
6.5523107e-05
7.7752878e-05
8.2285215e-05
8.4509354e-05
8.6259457e-05
8.7777715e-05
8.9064448e-05
9.0149406e-05
9.0995786e-05
9.1367203e-05
9.0874727e-05
8.9895829e-05
8.8734982e-05
8.741661e-05
8.615774e-05
8.5110299e-05
8.4232631e-05
8.3385235e-05
8.2150052e-05
7.8120302e-05
6.5026259e-05
4.2867027e-05
3.0547338e-05
6.8155235e-05
7.8171496e-05
8.2441645e-05
8.5179355e-05
8.7020688e-05
8.8367443e-05
8.9381665e-05
9.0037047e-05
9.0200053e-05
8.9640773e-05
8.8648243e-05
8.7320572e-05
8.5894015e-05
8.4646467e-05
8.3484693e-05
8.2356273e-05
8.0710826e-05
7.7711316e-05
6.8282597e-05
5.5898967e-05
4.6362616e-06
2.9894053e-05
6.4850902e-05
7.4729875e-05
8.1697953e-05
8.5132166e-05
8.7106206e-05
8.8432687e-05
8.9207565e-05
8.9245709e-05
8.8540903e-05
8.7361088e-05
8.5912804e-05
8.4337117e-05
8.2780905e-05
8.1122752e-05
7.8876633e-05
7.3750618e-05
6.5614363e-05
5.6346036e-05
4.9906912e-06
2.6674522e-05
4.673075e-05
7.0554394e-05
7.8650317e-05
8.2946801e-05
8.5683785e-05
8.7462593e-05
8.7931484e-05
8.7347525e-05
8.6141877e-05
8.4352714e-05
8.1855068e-05
7.9080002e-05
7.553732e-05
6.9661265e-05
4.9532459e-05
4.4830524e-05
4.7045993e-06
4.7789948e-06
4.5116716e-05
5.8983026e-05
6.8734741e-05
7.5058355e-05
8.1313296e-05
8.4375594e-05
8.4726606e-05
8.3609516e-05
8.0307066e-05
7.3697667e-05
6.7090445e-05
5.8285468e-05
5.9419241e-05
3.0640035e-05
5.872048e-06
3.1193202e-05
5.1136872e-05
6.7121817e-05
7.6220103e-05
7.7955189e-05
7.7387053e-05
7.3400343e-05
5.7332785e-05
4.5378823e-05
1.0303804e-05
3.0258403e-06
3.3797523e-06
8.2028051e-06
8.8117864e-06
8.7168957e-06
7.0406682e-06
3.1744415e-06
9.3483804e-06
3.8320719e-05
6.0056446e-05
6.2376783e-05
6.1719457e-05
5.5671817e-05
1.2482576e-05
6.6063195e-06
9.9806215e-06
6.5584804e-05
7.5320702e-05
8.2115249e-05
8.907618e-05
9.2454258e-05
9.3435419e-05
9.2936612e-05
8.9506845e-05
8.2598726e-05
7.5608473e-05
6.4411794e-05
3.2773082e-05
3.4176762e-06
3.5043152e-06
5.3917028e-05
7.8117591e-05
8.6399975e-05
9.0405453e-05
9.3132746e-05
9.5394025e-05
9.7098361e-05
9.8220056e-05
9.8771859e-05
9.8267173e-05
9.632351e-05
9.3317102e-05
8.8284146e-05
7.8010542e-05
5.011004e-05
9.2142523e-06
5.2937015e-06
7.3101243e-05
8.4173548e-05
9.0395937e-05
9.3016569e-05
9.4559485e-05
9.5884976e-05
9.7285736e-05
9.8582397e-05
9.9631473e-05
0.00010025217
0.00010021277
9.95062e-05
9.8275107e-05
9.6254643e-05
9.2359861e-05
8.4081475e-05
7.1657213e-05
3.1208907e-05
5.2561563e-06
7.574565e-05
8.8577266e-05
9.2635032e-05
9.4357717e-05
9.5263939e-05
9.6129483e-05
9.7153935e-05
9.829527e-05
9.9333235e-05
0.00010010518
0.00010047185
0.00010037367
9.9987542e-05
9.9318984e-05
9.8275799e-05
9.6616685e-05
9.3729266e-05
8.8534777e-05
7.580677e-05
3.2235607e-05
3.30391e-06
7.1597348e-05
8.8621569e-05
9.4084713e-05
9.5429028e-05
9.6021092e-05
9.655941e-05
9.7307982e-05
9.8220571e-05
9.9128008e-05
9.9808475e-05
0.00010039313
0.00010064468
0.00010040598
9.9966439e-05
9.9472546e-05
9.8708316e-05
9.7611603e-05
9.6163124e-05
9.3978606e-05
8.8487932e-05
7.3140602e-05
3.0031902e-05
4.9884598e-05
8.4130122e-05
9.3845075e-05
9.6298175e-05
9.6884781e-05
9.7260254e-05
9.773301e-05
9.8373368e-05
9.9040305e-05
9.95805e-05
0.00010022162
0.00010081511
0.00010099015
0.00010060888
0.00010003799
9.9463947e-05
9.8853744e-05
9.7914301e-05
9.6740422e-05
9.5315711e-05
9.2541718e-05
8.4119217e-05
5.4262292e-05
5.1204003e-06
9.6217478e-06
7.8044186e-05
9.2483103e-05
9.6772021e-05
9.7782134e-05
9.8090723e-05
9.8361671e-05
9.8694652e-05
9.9052458e-05
9.9467629e-05
0.00010003936
0.00010070627
0.00010128871
0.00010139252
0.00010090376
0.00010022141
9.9551434e-05
9.8991739e-05
9.8193992e-05
9.7110061e-05
9.5900714e-05
9.4254889e-05
9.0296027e-05
7.8032451e-05
5.0375516e-05
6.4435975e-05
8.8416579e-05
9.6427764e-05
9.8460855e-05
9.8891355e-05
9.903224e-05
9.913781e-05
9.9289102e-05
9.956861e-05
9.9999926e-05
0.00010057673
0.00010118717
0.0001017004
0.0001017424
0.00010121059
0.00010046871
9.9743882e-05
9.9135226e-05
9.8528172e-05
9.7575696e-05
9.6431331e-05
9.5154965e-05
9.2894804e-05
8.6192285e-05
6.507081e-05
6.675321e-06
2.9642321e-06
7.5738027e-05
9.3493794e-05
9.8472268e-05
9.9502726e-05
9.9626151e-05
9.9620861e-05
9.9719399e-05
9.9918626e-05
0.00010021288
0.00010062722
0.00010113229
0.00010144478
0.00010173687
0.00010188816
0.00010148174
0.00010076089
0.00010003585
9.9407759e-05
9.8909129e-05
9.8216152e-05
9.7166996e-05
9.6012292e-05
9.443345e-05
9.0196415e-05
7.4863798e-05
3.3403986e-05
8.8479468e-06
8.2651789e-05
9.6488313e-05
9.9692791e-05
0.00010012827
0.00010012289
0.00010021228
0.00010040976
0.00010066426
0.00010095693
0.00010126512
0.00010138275
0.00010121124
0.0001004288
0.00010134665
0.00010143075
0.00010106068
0.00010044899
9.9832072e-05
9.9311472e-05
9.8899486e-05
9.8065877e-05
9.7021351e-05
9.5758191e-05
9.2974135e-05
8.1852984e-05
5.4736387e-05
3.8731082e-05
8.9403996e-05
9.8341853e-05
0.00010038769
0.00010051045
0.00010057087
0.00010079783
0.00010111292
0.00010143065
0.00010170879