/*--------------------------------*- C++ -*----------------------------------*\
| =========                 |                                                 |
| \\      /  F ield         | OpenFOAM: The Open Source CFD Toolbox           |
|  \\    /   O peration     | Version:  2406                                  |
|   \\  /    A nd           | Website:  www.openfoam.com                      |
|    \\/     M anipulation  |                                                 |
\*---------------------------------------------------------------------------*/
FoamFile
{
    version     2.0;
    format      ascii;
    arch        "LSB;label=32;scalar=64";
    class       volScalarField;
    location    "50";
    object      p;
}
// * * * * * * * * * * * * * * * * * * * * * * * * * * * * * * * * * * * * * //

dimensions      [0 2 -2 0 0 0 0];

internalField   nonuniform List<scalar> 
150387
(
0.0052346023
0.0071391008
0.0071595229
0.0071657937
0.0071693945
0.0071702286
0.0071689732
0.0071640989
0.0071650145
0.007152515
0.0071466461
0.0071439745
0.0071498625
0.007161341
0.0071696188
0.0071732441
0.0071720569
0.0071663508
0.0071580138
0.007148152
0.0071398095
0.007170833
0.0071636551
0.007156444
0.0071547997
0.0071563547
0.007163864
0.0071730762
0.0071812404
0.0071841701
0.007180754
0.0071719197
0.007159422
0.0071449569
0.0071303988
0.0071151127
0.0071102491
0.0072044853
0.0071899027
0.0071788218
0.0071719224
0.0071687321
0.0071710343
0.0071771633
0.0071859241
0.0071953225
0.0072023917
0.0072038378
0.0071976328
0.0071848981
0.0071672718
0.0071473178
0.0071269792
0.007109138
0.0070967815
0.007086866
0.0072326535
0.0072153778
0.0072019622
0.0071932245
0.0071894617
0.0071900445
0.0071954692
0.0072048032
0.0072165469
0.0072279497
0.0072348785
0.0072340988
0.0072242639
0.0072060571
0.0071819348
0.007155311
0.0071289592
0.0071057365
0.0070881998
0.0070761809
0.0070694104
0.0072454421
0.0072306768
0.0072212923
0.0072162733
0.0072162657
0.0072209726
0.0072302365
0.0072431739
0.0072581252
0.0072715036
0.0072788482
0.0072761915
0.0072615557
0.0072364208
0.0072043482
0.0071701384
0.0071371355
0.007108254
0.0070854817
0.0070695029
0.007060883
0.0070583052
0.0072720485
0.0072613533
0.0072518914
0.0072471651
0.0072470187
0.0072517978
0.0072610514
0.0072743023
0.0072907351
0.0073082583
0.0073239585
0.007331895
0.0073276496
0.007307724
0.0072746532
0.0072338034
0.0071917378
0.0071514167
0.0071165379
0.0070884164
0.0070680217
0.0070562728
0.0070528903
0.0070542846
0.0073013088
0.007288597
0.0072818101
0.0072782002
0.0072793796
0.0072852226
0.0072955964
0.0073098938
0.0073264976
0.0073456261
0.0073650321
0.0073815631
0.0073888948
0.0073826026
0.0073574611
0.0073172088
0.00726829
0.0072186994
0.0071717607
0.007130957
0.0070975002
0.0070724915
0.0070570259
0.0070509032
0.0070510685
0.0073150087
0.0073079364
0.0073058364
0.0073084385
0.0073165057
0.0073297033
0.0073463493
0.0073653423
0.0073850034
0.007404426
0.0074221308
0.0074359384
0.0074401921
0.0074313573
0.007402557
0.007358054
0.0073043971
0.0072494547
0.0071974844
0.0071510813
0.0071124628
0.0070825725
0.0070625046
0.0070526837
0.0070524141
0.0070552144
0.0073262628
0.0073249478
0.0073294038
0.0073395172
0.0073556518
0.007376959
0.0074013385
0.0074253058
0.0074460367
0.0074625027
0.0074738501
0.0074801699
0.0074781115
0.0074656551
0.0074363428
0.0073925328
0.0073390412
0.0072823794
0.0072271945
0.0071765484
0.0071331156
0.0070984734
0.0070738733
0.0070600074
0.0070561825
0.0070582746
0.0073377741
0.0073356856
0.0073395255
0.0073501435
0.0073675784
0.0073926162
0.0074236911
0.0074565215
0.0074851119
0.0075050784
0.0075150415
0.0075156221
0.0075099667
0.0074989185
0.0074826212
0.007456658
0.0074190847
0.0073710621
0.0073167926
0.0072605468
0.0072064447
0.0071584598
0.0071193291
0.0070904257
0.0070724992
0.0070650039
0.0070645145
0.0073415473
0.0073419587
0.0073495677
0.007365079
0.0073892129
0.0074225928
0.0074629254
0.0075037638
0.0075365418
0.0075547051
0.0075566079
0.0075446423
0.007525303
0.0075044669
0.0074853455
0.007465622
0.0074383165
0.0073997498
0.0073509707
0.0072955784
0.0072389469
0.0071868964
0.0071433445
0.0071106984
0.0070895637
0.0070793507
0.0070777667
0.0070806166
0.0073389023
0.0073422157
0.0073525118
0.0073714159
0.0074004512
0.0074400443
0.0074872193
0.0075340988
0.0075704698
0.0075881479
0.0075853509
0.0075657098
0.0075389033
0.0075055888
0.0074846766
0.0074711305
0.0074551246
0.0074260174
0.0073834606
0.0073294566
0.0072708184
0.0072149056
0.0071676642
0.0071316687
0.0071078107
0.0070951964
0.0070916754
0.007092309
0.0073329051
0.0073360441
0.0073473889
0.007368084
0.0073994455
0.0074415609
0.0074907274
0.0075399095
0.007579157
0.0075996419
0.007598923
0.0075805009
0.0075591163
0.007535162
0.0074820827
0.007480291
0.0074697955
0.0074468172
0.007408422
0.0073556271
0.0072955405
0.0072370383
0.007187417
0.0071493485
0.0071236861
0.0071091373
0.0071036408
0.0071029975
0.0073253201
0.0073267526
0.0073366853
0.0073564147
0.0073872871
0.0074291076
0.0074780442
0.0075283034
0.0075702917
0.0075960511
0.007602261
0.0075908685
0.0075715238
0.0075501125
0.0075118165
0.0074980159
0.0074840385
0.0074594897
0.0074209928
0.0073680604
0.0073075902
0.007248793
0.0071994168
0.0071619276
0.0071363382
0.0071212975
0.0071136504
0.0071121126
0.0073128726
0.0073111951
0.0073194968
0.0073373654
0.0073660048
0.0074050122
0.0074515981
0.0075008673
0.0075456214
0.0075791082
0.0075968482
0.0075977066
0.0075859571
0.0075648183
0.0075378563
0.0075146159
0.0074905477
0.0074584291
0.007415756
0.0073621806
0.0073035507
0.0072476187
0.0072009289
0.0071663024
0.0071430267
0.0071299695
0.0071237114
0.0071225097
0.0073038325
0.0072959732
0.0073009822
0.0073159445
0.0073412172
0.0073763347
0.0074192928
0.0074671163
0.0075138548
0.0075546703
0.0075843688
0.0075984459
0.0075962002
0.0075784591
0.0075512129
0.0075187214
0.0074829533
0.0074414785
0.0073938699
0.0073405408
0.0072858439
0.0072356064
0.0071944881
0.0071642213
0.0071441707
0.0071334685
0.0071298328
0.0071288021
0.0072930232
0.0072837625
0.0072849167
0.0072960271
0.0073170849
0.0073478946
0.007386722
0.0074315678
0.0074788627
0.0075245301
0.0075632784
0.0075882405
0.0075944248
0.007579099
0.0075487215
0.0075073637
0.007461069
0.007411465
0.0073601052
0.0073082874
0.0072587836
0.0072157203
0.0071816398
0.007156828
0.0071411036
0.007133521
0.007132297
0.0072739639
0.0072734456
0.0072803266
0.0072966332
0.0073226378
0.0073570167
0.007398061
0.0074439136
0.0074904115
0.0075332355
0.0075639138
0.0075749537
0.0075606816
0.0075275797
0.0074800275
0.0074273316
0.0073735297
0.0073214736
0.0072726887
0.007229533
0.0071933556
0.0071655729
0.0071465402
0.0071356905
0.0071321585
0.0071333213
0.0072721741
0.0072670886
0.0072700366
0.0072815366
0.0073025443
0.0073318633
0.0073682361
0.0074097313
0.0074536287
0.0074947281
0.0075250718
0.0075365
0.0075228234
0.0074889605
0.0074398446
0.0073858944
0.0073321135
0.0072824145
0.0072382902
0.007200571
0.0071707886
0.0071491541
0.0071357781
0.0071300737
0.0071307085
0.0071343695
0.0072629689
0.0072643326
0.0072719429
0.0072882262
0.0073123554
0.007343294
0.0073790284
0.0074168433
0.0074519918
0.0074774395
0.0074858462
0.0074724378
0.0074397585
0.0073930423
0.0073415383
0.0072918543
0.0072463875
0.0072071735
0.0071753015
0.0071514358
0.0071353784
0.0071268953
0.0071254588
0.0071274553
0.007266128
0.0072647064
0.00726884
0.0072804821
0.0072992673
0.0073243112
0.0073534724
0.0073836985
0.0074109775
0.0074292394
0.0074331545
0.0074192635
0.0073886232
0.0073460384
0.0073001477
0.0072553176
0.0072151204
0.0071816811
0.0071555125
0.0071374385
0.0071267831
0.0071230862
0.0071233482
0.0071259686
0.0072678954
0.0072709275
0.0072787643
0.0072924025
0.0073117116
0.0073344008
0.0073573237
0.0073765225
0.0073879279
0.0073873011
0.0073723423
0.0073436907
0.0073058175
0.0072645599
0.0072252832
0.0071909225
0.0071633095
0.0071427449
0.0071301755
0.0071243562
0.007122715
0.0071237797
0.0072755512
0.0072821942
0.0072916322
0.0073055611
0.0073223229
0.0073385352
0.0073510396
0.0073567544
0.0073526129
0.0073363766
0.0073092093
0.0072744658
0.0072378708
0.007203942
0.0071754474
0.0071537096
0.0071382714
0.0071301264
0.0071265991
0.0071250384
0.0072880163
0.0072954767
0.0073055489
0.0073170006
0.0073274336
0.0073344847
0.0073358756
0.0073292213
0.007312108
0.0072860311
0.0072540509
0.0072212702
0.0071923809
0.0071696671
0.0071532956
0.0071414018
0.0071339631
0.0071308686
0.0072994335
0.0073101654
0.0073180935
0.0073233868
0.0073263364
0.0073247578
0.0073160119
0.0072985402
0.0072736327
0.0072442324
0.0072149604
0.0071907616
0.0071741443
0.0071620111
0.0071487274
0.0071404673
0.0073206929
0.007324734
0.0073242597
0.0073202915
0.0073098553
0.0072931538
0.0072707189
0.0072443848
0.0072166395
0.0071951618
0.0071827602
0.0071716713
0.0073208851
0.0073092906
0.0072939493
0.0072741959
0.00724901
0.0072311139
0.0071615274
0.0071550846
0.0071464508
0.007157677
0.0071643183
0.0071680506
0.0071691778
0.0071677985
0.0071642688
0.0071682904
0.0071496625
0.0071480835
0.007147028
0.0071559982
0.0071661784
0.0071736857
0.0071763389
0.0071729682
0.0071657631
0.0071563359
0.0071471335
0.007140129
0.007130071
0.0071908942
0.0071703595
0.0071670176
0.007156298
0.0071578954
0.0071600844
0.0071697249
0.0071786361
0.0071852212
0.00718636
0.007181008
0.0071709013
0.007157266
0.0071420187
0.0071260379
0.0071114229
0.0071142798
0.0072109513
0.0071909781
0.0071797423
0.007176282
0.0071730934
0.0071770797
0.007182894
0.007192366
0.0072014359
0.0072067903
0.0072062214
0.0071980662
0.0071845101
0.0071657036
0.0071455492
0.0071251916
0.0071063896
0.0070952686
0.0070896793
0.0072372481
0.0072161693
0.0072043875
0.0071974398
0.0071965468
0.0071972483
0.0072037567
0.0072126768
0.0072241257
0.0072345316
0.0072388787
0.0072364703
0.0072239957
0.0072045709
0.0071792841
0.0071527106
0.0071263925
0.0071034998
0.0070854209
0.0070738123
0.0070729426
0.0072656439
0.0072481857
0.0072331593
0.0072271062
0.0072228083
0.0072247092
0.0072294298
0.007238954
0.0072514257
0.007265245
0.0072780718
0.0072817592
0.0072780939
0.0072601849
0.0072332203
0.0072001771
0.0071667226
0.0071345264
0.0071066166
0.0070850768
0.0070678665
0.0070599123
0.0070607963
0.0072722049
0.0072638469
0.0072563691
0.0072538702
0.0072548324
0.0072608144
0.0072700572
0.0072831621
0.0072988887
0.0073148641
0.0073299576
0.0073333362
0.0073287862
0.0073048362
0.0072696147
0.007227452
0.0071862624
0.0071475047
0.0071141941
0.0070874033
0.0070672436
0.0070549757
0.0070495594
0.0070611721
0.007302623
0.0072901364
0.0072870357
0.0072840959
0.0072871499
0.0072936797
0.0073047013
0.0073182178
0.0073339737
0.0073512144
0.0073684872
0.0073838984
0.0073864711
0.0073806751
0.0073513277
0.0073092021
0.0072594722
0.0072113389
0.0071666823
0.0071280364
0.0070967534
0.0070732984
0.0070585109
0.0070525707
0.0070551692
0.0073179058
0.0073108001
0.007311848
0.0073153967
0.0073247322
0.0073380832
0.0073550479
0.0073727638
0.0073902866
0.0074072982
0.0074216467
0.0074331257
0.0074325468
0.0074240289
0.0073916717
0.0073462294
0.0072927499
0.0072396722
0.007190131
0.0071466258
0.0071101955
0.0070821026
0.0070629525
0.0070511295
0.0070505075
0.0070597072
0.0073349584
0.007328436
0.0073282625
0.007335151
0.0073460035
0.0073632069
0.0073848756
0.007409033
0.0074311418
0.0074481769
0.0074602044
0.0074671956
0.0074693449
0.0074636921
0.0074509388
0.0074196702
0.0073761493
0.00732416
0.0072701094
0.0072178962
0.0071707742
0.0071296942
0.0070975797
0.0070748346
0.007060895
0.0070562917
0.0070597092
0.0073397127
0.0073387895
0.0073431164
0.0073559338
0.0073743022
0.0074003178
0.0074318818
0.0074637026
0.007489073
0.0075034161
0.0075076264
0.0075040846
0.0074946823
0.0074811159
0.0074640302
0.0074362867
0.0073999272
0.0073539395
0.0073029064
0.0072490559
0.0071990347
0.0071536818
0.0071170931
0.0070904373
0.0070731638
0.0070651462
0.0070660993
0.0073422178
0.0073448538
0.0073524926
0.0073692925
0.0073944769
0.0074290006
0.0074697538
0.0075089721
0.0075372577
0.0075485602
0.0075438753
0.0075298585
0.0075028206
0.0074849218
0.00746317
0.0074458825
0.0074183761
0.0073811831
0.0073352469
0.0072822055
0.0072290715
0.007179948
0.0071398074
0.007109817
0.0070906539
0.0070797231
0.0070811378
0.007083579
0.0073384465
0.0073460371
0.0073557262
0.0073755757
0.0074053113
0.0074456569
0.0074927329
0.0075373729
0.0075685304
0.0075788678
0.0075708863
0.0075520264
0.0075281321
0.0074929785
0.0074705626
0.0074472367
0.0074357344
0.0074073933
0.0073678912
0.0073159024
0.0072599255
0.007206687
0.007162738
0.0071301239
0.0071087745
0.0070983315
0.0070956517
0.007095066
0.0073318815
0.0073352645
0.0073491961
0.0073709574
0.0074028434
0.0074445784
0.0074925242
0.0075383722
0.0075718436
0.0075859164
0.0075823827
0.0075672828
0.0075499442
0.0075268146
0.0074722126
0.0074610374
0.0074505051
0.0074260905
0.0073889108
0.0073375093
0.0072801653
0.0072248947
0.0071793617
0.0071450757
0.0071213446
0.007106044
0.0071015537
0.0071073808
0.0073254094
0.0073290119
0.007338922
0.007359328
0.0073904562
0.0074316563
0.0074795607
0.007526151
0.0075626639
0.0075819338
0.0075848235
0.0075739663
0.0075597221
0.0075433157
0.0075010718
0.0074740226
0.0074648007
0.0074393102
0.0074027315
0.0073508677
0.0072922471
0.0072361053
0.0071903005
0.0071569516
0.0071341758
0.0071227546
0.0071151734
0.0071140557
0.0073128247
0.0073103687
0.0073207942
0.0073392057
0.0073681059
0.0074062066
0.0074506044
0.0074962341
0.0075364261
0.0075647156
0.0075788032
0.0075793399
0.007566573
0.0075468136
0.0075186082
0.0074928129
0.0074678886
0.0074353049
0.0073938589
0.0073415913
0.0072851708
0.0072325992
0.0071903151
0.0071597175
0.0071390365
0.0071293108
0.0071245117
0.0071236177
0.0073023223
0.007293885
0.0073010568
0.0073175412
0.0073430147
0.007377652
0.007419249
0.0074630942
0.0075065308
0.0075430211
0.007569397
0.007581252
0.0075782209
0.0075578646
0.0075286059
0.0074925712
0.0074574796
0.0074163882
0.0073708579
0.0073197943
0.007268159
0.0072217695
0.0071850293
0.0071585721
0.0071400597
0.0071323873
0.0071293578
0.0072940584
0.0072819759
0.007285144
0.0072981451
0.0073194002
0.007349562
0.0073871208
0.0074288511
0.0074731504
0.0075152782
0.0075509511
0.0075727512
0.0075763845
0.0075568282
0.0075249037
0.0074803625
0.0074345408
0.0073858705
0.0073369541
0.0072878744
0.0072420247
0.0072031643
0.0071727909
0.0071515006
0.0071375251
0.0071322523
0.0071321202
0.007273166
0.0072714528
0.0072818395
0.0072989996
0.0073249641
0.0073582904
0.0073972395
0.0074399898
0.0074836617
0.0075238368
0.0075505556
0.0075587379
0.0075387486
0.0075043409
0.0074537374
0.0074019968
0.0073496481
0.0073007264
0.007255512
0.0072156165
0.0071833302
0.0071587474
0.0071425908
0.0071324569
0.0071310228
0.0071356205
0.0072750068
0.0072677202
0.0072724942
0.0072847993
0.0073059263
0.0073341045
0.0073686393
0.0074076627
0.0074479161
0.0074864945
0.007512236
0.0075208459
0.0075015744
0.0074666785
0.0074154007
0.0073625931
0.007311516
0.0072649572
0.0072242053
0.0071897312
0.0071634952
0.0071443644
0.0071335039
0.0071290883
0.0071311635
0.0071368762
0.0072747634
0.0072615441
0.0072645146
0.0072739069
0.0072913171
0.0073149095
0.0073443491
0.007377878
0.0074118556
0.0074444056
0.0074648253
0.0074708108
0.0074527532
0.007419535
0.0073716682
0.0073226357
0.0072751363
0.0072325095
0.0071968089
0.0071677191
0.0071467022
0.0071319962
0.00712492
0.0071227753
0.0071289685
0.0072702311
0.0072656168
0.007269976
0.0072839498
0.0073021665
0.0073261861
0.0073533796
0.0073800727
0.0074041992
0.0074175529
0.0074196159
0.0074025428
0.007371485
0.0073291487
0.0072846866
0.0072423854
0.007205097
0.0071751426
0.0071510207
0.0071354098
0.0071241646
0.0071237679
0.0071225108
0.0072692228
0.007272349
0.0072801179
0.0072945152
0.007313569
0.0073348398
0.0073547592
0.0073713962
0.0073781476
0.0073762373
0.0073593526
0.0073304468
0.0072928057
0.0072529557
0.007216278
0.0071842222
0.0071596605
0.0071399004
0.0071280056
0.0071232004
0.007123757
0.0071274813
0.0072772385
0.0072862657
0.0072935507
0.0073081678
0.0073235278
0.0073373571
0.0073475889
0.0073496662
0.0073444759
0.0073267937
0.0072992702
0.0072650594
0.0072297547
0.0071984644
0.0071716805
0.0071526796
0.0071363931
0.00713017
0.0071281643
0.0071301919
0.0072887627
0.0072959795
0.0073069321
0.0073170774
0.0073261315
0.0073312474
0.0073307742
0.0073231932
0.0073049326
0.0072787583
0.0072476447
0.0072149279
0.0071879063
0.0071647303
0.0071505764
0.0071374293
0.0071364273
0.007135403
0.0073050532
0.0073109519
0.0073190493
0.0073230444
0.0073252427
0.0073224952
0.0073124474
0.00729324
0.007267303
0.0072370786
0.0072083363
0.0071872061
0.0071711113
0.007166543
0.0071508
0.0073252511
0.0073256927
0.0073252244
0.0073229758
0.0073136045
0.0072967466
0.0072738681
0.0072468001
0.0072180971
0.0071958174
0.0071826225
0.0071769116
0.0073225826
0.0073091551
0.0072937851
0.0072734861
0.0072517089
0.0071650215
0.007157781
0.0071502342
0.0071522949
0.0071601489
0.0071648368
0.0071668131
0.0071675046
0.0071654344
0.0071677163
0.0071446676
0.0071446866
0.0071448304
0.0071531707
0.0071632105
0.0071713909
0.0071746427
0.0071714351
0.0071646625
0.0071554149
0.0071470093
0.0071403607
0.0071301147
0.0071913867
0.0071647427
0.0071621433
0.0071507938
0.0071530997
0.007155729
0.0071661317
0.0071755547
0.007182511
0.0071839793
0.0071787386
0.0071690409
0.0071556941
0.0071406427
0.0071237744
0.0071091586
0.0071165694
0.0072114146
0.0071864977
0.0071743842
0.0071714262
0.0071682611
0.0071724402
0.0071781992
0.0071880723
0.0071975916
0.007203169
0.0072028703
0.0071949175
0.0071821458
0.0071636331
0.0071437559
0.0071229427
0.0071036287
0.0070932005
0.007088019
0.0072377203
0.0072124145
0.0071996667
0.0071929373
0.0071923282
0.0071927756
0.0071992194
0.0072079078
0.0072194
0.0072301159
0.0072342341
0.0072321632
0.0072197237
0.0072009873
0.0071760885
0.0071499011
0.0071234288
0.0071002967
0.0070814167
0.0070698697
0.0070692073
0.0072680771
0.0072465302
0.0072294467
0.0072236762
0.0072188845
0.0072205727
0.0072247269
0.0072338827
0.0072460257
0.0072597785
0.0072730716
0.0072764681
0.0072733931
0.0072553054
0.007228685
0.0071956876
0.0071628455
0.0071309142
0.0071030746
0.0070813153
0.0070629238
0.0070554295
0.0070572773
0.0072704322
0.0072615115
0.0072535089
0.0072506571
0.0072509122
0.0072563052
0.0072647466
0.0072771812
0.007292581
0.0073088123
0.0073250395
0.0073280903
0.0073245667
0.0072999827
0.0072644622
0.0072218952
0.0071813015
0.0071428533
0.0071099036
0.0070830527
0.0070623139
0.0070492817
0.0070438453
0.0070626297
0.0073041009
0.0072883184
0.007285257
0.0072814996
0.0072839021
0.007289396
0.0072995864
0.0073122706
0.0073273228
0.0073447161
0.0073620998
0.0073789113
0.0073811293
0.0073769045
0.0073465049
0.0073036064
0.0072531864
0.0072052613
0.0071611562
0.0071230998
0.0070920731
0.0070684545
0.0070531486
0.0070469301
0.0070502594
0.0073187925
0.0073100807
0.0073106242
0.0073130643
0.0073213174
0.0073335013
0.0073493608
0.0073664228
0.0073831306
0.0073997442
0.0074140657
0.0074270482
0.0074262406
0.0074195831
0.0073860741
0.0073397561
0.0072855805
0.0072327196
0.0071837806
0.0071408949
0.0071048993
0.0070769365
0.0070575681
0.0070448955
0.0070438422
0.0070599258
0.0073374674
0.007328337
0.0073273514
0.0073336937
0.0073434057
0.0073593117
0.00738011
0.0074034885
0.0074247038
0.0074404649
0.0074516139
0.0074582659
0.0074615375
0.0074558362
0.0074444097
0.00741216
0.0073679941
0.0073158102
0.0072624383
0.0072107072
0.007164354
0.0071239998
0.0070922993
0.0070696558
0.0070552025
0.0070502984
0.0070551746
0.0073415334
0.0073384662
0.0073419065
0.0073542353
0.0073714197
0.0073966529
0.0074277695
0.0074591713
0.0074835686
0.0074960492
0.0074988088
0.0074946997
0.0074863955
0.0074726045
0.0074561007
0.0074271856
0.0073905657
0.0073448861
0.0072949057
0.0072420921
0.00719239
0.0071477454
0.0071116816
0.0070852799
0.0070676948
0.0070595119
0.007059809
0.0073422906
0.0073441232
0.0073508257
0.0073668271
0.0073911093
0.0074252757
0.0074662699
0.0075056121
0.0075329943
0.007542081
0.0075353353
0.0075208929
0.0074936418
0.0074766846
0.0074543842
0.0074365426
0.0074084847
0.0073718702
0.0073272509
0.0072754135
0.0072225592
0.0071739782
0.007134521
0.0071049665
0.0070860977
0.0070747945
0.0070767276
0.0070819822
0.0073372215
0.0073449866
0.0073538811
0.0073730197
0.0074020294
0.0074422634
0.0074900717
0.0075352284
0.0075655378
0.0075735322
0.0075639121
0.0075453661
0.0075230717
0.0074832663
0.0074604204
0.0074378991
0.0074272552
0.0073995697
0.0073616231
0.0073106482
0.0072546214
0.0072011813
0.0071579135
0.0071258572
0.0071051122
0.0070951666
0.0070932252
0.0070933166
0.0073297381
0.0073328118
0.0073468272
0.0073680196
0.0073993015
0.0074407088
0.0074891569
0.0075348993
0.0075672434
0.0075794419
0.0075750036
0.0075608535
0.0075444314
0.0075150906
0.0074591479
0.0074526436
0.0074421181
0.0074183438
0.0073826213
0.0073321382
0.0072746874
0.0072192674
0.0071743738
0.0071409164
0.0071178267
0.0071024634
0.0070978315
0.0071075148
0.0073226588
0.0073267323
0.0073361865
0.007356105
0.0073869553
0.007427978
0.0074764381
0.0075229607
0.007558281
0.0075756108
0.0075775004
0.0075670629
0.00755315
0.0075332756
0.0074903131
0.0074651746
0.0074574679
0.0074329312
0.0073983539
0.0073470788
0.007287867
0.0072311252
0.0071856452
0.0071532249
0.0071311989
0.0071206001
0.0071120217
0.0071126099
0.0073076568
0.007306055
0.0073169612
0.00733524
0.007363956
0.0074015884
0.0074460587
0.0074912875
0.007530141
0.0075568575
0.0075699802
0.0075708513
0.0075596469
0.0075401282
0.00751123
0.007483931
0.0074595359
0.0074281477
0.0073884196
0.0073366586
0.007279974
0.0072272748
0.0071855063
0.0071560519
0.0071361618
0.0071275377
0.0071225003
0.0071225335
0.0072988696
0.0072887031
0.0072960673
0.00731302
0.0073384964
0.0073728664
0.0074139537
0.0074577559
0.0075001486
0.0075354704
0.0075613909
0.0075734436
0.0075716797
0.0075503447
0.0075208634
0.0074831824
0.0074488525
0.0074088097
0.0073648458
0.0073144345
0.0072630205
0.0072170704
0.0071811399
0.0071557062
0.0071375995
0.0071308962
0.0071264269
0.0072928572
0.0072763075
0.0072797068
0.0072934093
0.0073147361
0.0073447316
0.007381816
0.0074230253
0.0074668154
0.007508356
0.0075442312
0.0075665833
0.0075711204
0.0075502884
0.0075183323
0.0074720306
0.0074263649
0.0073782018
0.007330191
0.0072817092
0.0072363589
0.0071984287
0.007169211
0.0071489648
0.007135469
0.0071308353
0.0071308545
0.0072667877
0.007265316
0.0072767116
0.007294208
0.0073202305
0.007353252
0.0073916735
0.0074341966
0.0074778239
0.007518951
0.0075465332
0.0075559182
0.0075341537
0.0074996169
0.0074469463
0.0073949813
0.0073426821
0.0072940695
0.0072495411
0.0072105604
0.0071791979
0.0071555937
0.007140305
0.0071305351
0.0071300102
0.0071356479
0.0072711578
0.0072617681
0.0072671476
0.0072800264
0.0073014684
0.0073295091
0.0073636211
0.0074022153
0.0074426533
0.0074823504
0.0075088647
0.0075188214
0.0074981014
0.0074631269
0.0074099667
0.0073566215
0.0073049099
0.0072587513
0.0072186318
0.0071848365
0.0071595241
0.0071410258
0.007130771
0.0071266311
0.0071292955
0.007138541
0.0072740905
0.0072554983
0.0072585989
0.0072688125
0.0072869195
0.0073106847
0.0073399093
0.0073732952
0.0074071271
0.0074404667
0.0074612156
0.0074682603
0.0074493771
0.0074160857
0.0073667102
0.0073168881
0.0072692684
0.0072268844
0.0071917129
0.0071630839
0.0071427065
0.0071282849
0.0071215365
0.0071200779
0.0071272714
0.0072682625
0.0072607987
0.0072646578
0.0072799214
0.0072984675
0.0073225711
0.0073497103
0.0073759867
0.0074004849
0.007413584
0.0074161359
0.0073986018
0.0073674843
0.0073242829
0.0072794506
0.0072370461
0.0071998151
0.0071702211
0.0071462535
0.0071311193
0.0071195325
0.0071209202
0.007118369
0.0072645278
0.0072680147
0.0072757711
0.00729105
0.0073105187
0.0073321051
0.0073518521
0.0073683159
0.0073745194
0.0073728587
0.0073557644
0.0073267337
0.0072884285
0.0072480568
0.0072111808
0.007178939
0.0071544288
0.0071344811
0.0071224798
0.0071187219
0.0071189271
0.0071277166
0.0072730538
0.0072838169
0.0072904975
0.0073057497
0.0073217035
0.0073354314
0.0073455022
0.0073469374
0.0073417825
0.0073237934
0.0072957507
0.0072608422
0.007224893
0.007193378
0.0071662103
0.0071470189
0.0071302161
0.0071253998
0.0071226176
0.0071293899
0.0072867393
0.0072935321
0.0073047373
0.007315702
0.0073247224
0.0073295886
0.0073288349
0.0073212763
0.0073025304
0.0072755994
0.007243502
0.0072095941
0.0071821229
0.0071583387
0.0071441029
0.0071315394
0.00713128
0.0071358629
0.0073052088
0.0073097511
0.007318913
0.0073223012
0.0073245003
0.0073215804
0.0073112689
0.0072911226
0.0072641788
0.0072321055
0.0072028772
0.0071813107
0.0071648139
0.00716192
0.0071458821
0.0073278136
0.0073263379
0.0073254171
0.0073238128
0.0073147237
0.0072965048
0.0072718809
0.0072418728
0.0072109931
0.0071889686
0.0071797718
0.0071788001
0.0073241012
0.0073095868
0.0072930548
0.0072717671
0.0072500067
0.0071595771
0.0071538669
0.0071444216
0.0071445008
0.0071533728
0.0071599971
0.0071635525
0.0071661175
0.0071648846
0.0071582505
0.0071284699
0.0071303375
0.0071317634
0.0071415259
0.0071535933
0.0071640804
0.0071694157
0.0071673467
0.0071616906
0.0071528267
0.0071450141
0.007138891
0.0071277378
0.0071835009
0.0071484504
0.0071455355
0.0071326232
0.0071368481
0.0071409139
0.0071538483
0.007165559
0.0071746369
0.0071777343
0.007173141
0.0071643259
0.0071512025
0.007136026
0.0071174354
0.0071027166
0.0071140109
0.0072043823
0.0071717101
0.0071569809
0.007154317
0.0071510003
0.0071565458
0.0071635837
0.0071758686
0.0071878166
0.0071953515
0.007196323
0.0071885847
0.0071766354
0.0071578878
0.0071377085
0.0071154147
0.0070945284
0.0070843555
0.0070810472
0.0072325469
0.0071998122
0.0071843962
0.0071769011
0.0071767386
0.0071771575
0.0071848446
0.0071948681
0.0072086441
0.0072219133
0.007227705
0.0072269101
0.0072137123
0.0071947973
0.0071688478
0.0071419527
0.0071138248
0.0070892014
0.0070684082
0.0070566522
0.0070596794
0.0072659359
0.0072386725
0.0072172961
0.0072108752
0.0072049341
0.0072068251
0.007211041
0.0072213391
0.0072350263
0.0072511024
0.0072676889
0.0072726424
0.0072714679
0.007251346
0.0072230984
0.0071878822
0.0071538413
0.007120357
0.0070909984
0.0070676969
0.0070470369
0.0070402625
0.0070461907
0.0072652734
0.0072535782
0.0072434554
0.0072395555
0.0072388972
0.0072443467
0.0072530039
0.0072665165
0.0072837643
0.0073027953
0.0073237585
0.0073287732
0.0073282053
0.0073002702
0.0072611471
0.0072146006
0.0071718096
0.0071314276
0.0070969294
0.0070682855
0.0070455959
0.0070312639
0.0070270594
0.0070540816
0.0073035552
0.0072832428
0.0072790863
0.0072731417
0.0072745912
0.0072792361
0.0072895553
0.00730249
0.007318556
0.0073379051
0.0073583921
0.0073808378
0.0073854039
0.0073854541
0.0073507592
0.007302756
0.0072470908
0.0071961702
0.0071498774
0.0071101969
0.0070774974
0.0070521326
0.0070353907
0.0070292497
0.0070374175
0.0073188265
0.0073071277
0.0073062027
0.0073066699
0.007313883
0.0073256402
0.0073419571
0.007359395
0.0073765584
0.0073945844
0.0074113459
0.00742971
0.007431246
0.0074291805
0.0073913782
0.0073396872
0.0072802337
0.007224085
0.0071728005
0.0071282471
0.0070904081
0.0070606788
0.0070397849
0.0070257218
0.0070260084
0.0070511948
0.0073391741
0.0073276411
0.0073246061
0.0073297802
0.0073380544
0.0073536317
0.007375103
0.007399824
0.0074217012
0.0074368544
0.0074477463
0.0074550696
0.0074616484
0.0074579002
0.0074497682
0.0074144111
0.0073660757
0.0073101165
0.0072543405
0.0072007635
0.0071528226
0.0071106291
0.0070772816
0.0070532646
0.0070376993
0.0070332166
0.007043694
0.0073427939
0.0073374092
0.0073390205
0.007350786
0.0073675699
0.0073938286
0.0074275768
0.0074616209
0.0074866597
0.0074968604
0.0074970396
0.0074912312
0.0074838601
0.0074707501
0.007456127
0.0074251743
0.0073866729
0.0073393165
0.0072883762
0.0072341459
0.0071826705
0.0071359726
0.0070980795
0.0070701914
0.0070515535
0.0070434417
0.0070475425
0.0073423241
0.0073419974
0.0073471291
0.0073627962
0.0073878444
0.0074248013
0.007470609
0.0075143233
0.0075425262
0.0075478898
0.0075359039
0.0075171422
0.0074858288
0.0074696694
0.0074477199
0.00743086
0.0074032139
0.007367262
0.0073232543
0.0072705934
0.0072155949
0.0071644742
0.0071230905
0.0070920421
0.0070726024
0.0070608995
0.007066295
0.0070741786
0.0073350889
0.0073415964
0.0073495696
0.0073689717
0.007399908
0.0074443384
0.0074984955
0.0075488221
0.0075799239
0.0075830536
0.0075673781
0.0075425265
0.0075196438
0.0074743011
0.0074509626
0.0074292547
0.0074237077
0.0073988854
0.0073633684
0.0073115841
0.007252414
0.007195039
0.0071490888
0.0071154588
0.0070943249
0.0070848624
0.0070852146
0.0070869196
0.007324548
0.0073261825
0.0073406635
0.0073626216
0.0073961217
0.0074411782
0.0074950776
0.0075447519
0.0075774819
0.0075859644
0.00757684
0.0075573234
0.0075380747
0.0075037603
0.0074458685
0.0074449622
0.0074397022
0.007419887
0.0073871108
0.0073358593
0.0072746804
0.0072146356
0.0071669809
0.0071320375
0.007108562
0.0070930124
0.0070896577
0.0071035379
0.007317228
0.0073187885
0.0073280419
0.0073487734
0.0073819529
0.0074265121
0.0074799217
0.0075300428
0.0075658421
0.0075800629
0.0075783049
0.0075633896
0.0075468123
0.0075232296
0.0074795911
0.0074583281
0.0074579548
0.0074381784
0.0074077409
0.0073552956
0.0072911158
0.007228653
0.0071797341
0.0071459805
0.0071238653
0.007114403
0.0071056733
0.0071083862
0.0072993421
0.0072939253
0.0073055579
0.0073248051
0.0073557187
0.007396072
0.0074438078
0.0074915611
0.007531193
0.0075567827
0.0075685994
0.0075686962
0.0075568528
0.0075362476
0.0075065729
0.0074797142
0.0074588303
0.0074308049
0.0073936244
0.0073403754
0.007279444
0.0072223776
0.0071784345
0.0071486481
0.0071293134
0.0071225193
0.0071179619
0.0071195375
0.0072906049
0.0072738272
0.0072813092
0.0072997027
0.0073272313
0.007364115
0.0074079682
0.007453939
0.0074979173
0.0075342516
0.0075617134
0.0075757496
0.0075760087
0.0075519276
0.0075207108
0.0074799667
0.0074467088
0.0074080133
0.0073654647
0.0073138647
0.0072595824
0.0072110369
0.0071742072
0.0071492043
0.0071316458
0.0071268716
0.0071224943
0.0072842343
0.0072599515
0.0072628844
0.0072780605
0.0073012066
0.0073334237