/*--------------------------------*- C++ -*----------------------------------*\
| =========                 |                                                 |
| \\      /  F ield         | OpenFOAM: The Open Source CFD Toolbox           |
|  \\    /   O peration     | Version:  2406                                  |
|   \\  /    A nd           | Website:  www.openfoam.com                      |
|    \\/     M anipulation  |                                                 |
\*---------------------------------------------------------------------------*/
FoamFile
{
    version     2.0;
    format      ascii;
    arch        "LSB;label=32;scalar=64";
    class       volScalarField;
    location    "150";
    object      epsilon;
}
// * * * * * * * * * * * * * * * * * * * * * * * * * * * * * * * * * * * * * //

dimensions      [0 2 -3 0 0 0 0];

internalField   nonuniform List<scalar> 
150387
(
0.0004361997
1.2383381e-05
1.5225806e-05
1.7729758e-05
1.7784921e-05
1.4217715e-05
1.0132673e-05
9.6406085e-06
4.2478725e-05
1.0328247e-05
1.1527883e-05
1.4396524e-05
1.6621788e-05
2.1104061e-05
2.3965639e-05
2.4430747e-05
2.238841e-05
1.9250511e-05
1.6654688e-05
1.576178e-05
9.5869335e-06
1.2642493e-05
1.4874973e-05
1.6862574e-05
1.7582946e-05
1.8353802e-05
2.1024409e-05
2.6513526e-05
3.033638e-05
3.0917212e-05
2.8660022e-05
2.5514906e-05
2.3547252e-05
2.3228818e-05
1.8432114e-05
1.2699343e-05
9.4417065e-06
8.1641423e-05
1.5731936e-05
1.9634906e-05
2.1788733e-05
2.2518763e-05
2.2761315e-05
2.3959126e-05
2.9464742e-05
3.7971099e-05
4.4711032e-05
4.7019418e-05
4.3192162e-05
3.5790724e-05
2.947901e-05
2.695203e-05
2.3477101e-05
1.9203305e-05
1.4164285e-05
1.0849879e-05
0.00014744694
1.5891342e-05
2.1450808e-05
2.5304918e-05
2.7170344e-05
2.7973915e-05
2.825248e-05
3.0227718e-05
3.8957109e-05
5.2036849e-05
6.5264146e-05
7.2721231e-05
6.7293539e-05
5.5603603e-05
4.2727036e-05
3.3158024e-05
2.7779688e-05
2.3505166e-05
1.9490655e-05
1.4672847e-05
9.8581947e-06
1.5795332e-05
2.1553903e-05
2.6875974e-05
3.0782917e-05
3.3508186e-05
3.4913446e-05
3.477114e-05
3.6113499e-05
4.7403431e-05
6.7686018e-05
9.3914986e-05
0.00011103717
0.00010217069
8.1605118e-05
6.1034498e-05
4.4830022e-05
3.4097457e-05
2.7587745e-05
2.3065367e-05
1.8868512e-05
1.3832198e-05
1.0095312e-05
1.4610048e-05
2.1220582e-05
2.7133941e-05
3.2720271e-05
3.8317525e-05
4.3019929e-05
4.504354e-05
4.3869837e-05
4.237563e-05
5.2892893e-05
8.2037558e-05
0.0001261768
0.00015795051
0.00014490696
0.00011241414
8.0601155e-05
5.7245897e-05
4.1685377e-05
3.1900399e-05
2.5898813e-05
2.1368609e-05
1.6914681e-05
1.0762622e-05
8.1673962e-06
4.7950094e-05
2.0253271e-05
2.6961989e-05
3.3058245e-05
4.1372441e-05
5.1205263e-05
5.897757e-05
6.1402862e-05
5.8084086e-05
5.152729e-05
5.3598925e-05
8.6466339e-05
0.00014661261
0.00019421847
0.00018028718
0.00013751817
9.5837788e-05
6.5603484e-05
4.6887584e-05
3.5221031e-05
2.8020084e-05
2.2875061e-05
1.8306492e-05
1.2930419e-05
7.0252619e-06
1.5992093e-05
2.5886126e-05
3.1711609e-05
4.0911634e-05
5.5864159e-05
7.261887e-05
8.5808418e-05
8.8304753e-05
8.0599688e-05
6.7147734e-05
5.59409e-05
7.2955546e-05
0.00013045731
0.00017768193
0.00017028481
0.00013270803
9.3317682e-05
6.480265e-05
4.7103495e-05
3.6245479e-05
2.9489183e-05
2.4350998e-05
1.9440219e-05
1.4441137e-05
9.1676494e-06
2.9299039e-06
1.7368179e-05
2.7356821e-05
3.6950797e-05
5.4867191e-05
7.8582453e-05
0.00010679538
0.0001327791
0.00013447098
0.00011586331
9.035407e-05
6.7682921e-05
5.7168569e-05
8.7766363e-05
0.00011942432
0.00012081838
0.00010011104
7.5368294e-05
5.5741677e-05
4.3530079e-05
3.7610865e-05
3.3727343e-05
2.8964965e-05
2.3032573e-05
1.6756762e-05
1.1152517e-05
5.2096461e-06
6.6287113e-06
1.9981958e-05
2.969282e-05
4.7204298e-05
7.4085722e-05
0.00011047902
0.00015805347
0.00020543358
0.00020612246
0.00016843239
0.00012048762
8.4372531e-05
5.8676026e-05
5.3396154e-05
6.787232e-05
7.3324896e-05
6.5906016e-05
5.350902e-05
4.5975264e-05
4.7739961e-05
4.8886556e-05
4.5910964e-05
3.9860463e-05
3.2186942e-05
2.4017324e-05
1.7482837e-05
1.2938373e-05
1.3853335e-05
2.3472825e-05
3.599521e-05
6.0244996e-05
9.6669548e-05
0.00015174472
0.0002271128
0.0003052173
0.00030220803
0.00023357192
0.00015492852
9.9570187e-05
6.5470833e-05
4.8163206e-05
3.9332612e-05
4.0202993e-05
3.8192342e-05
4.2618677e-05
5.9069903e-05
6.9880313e-05
7.0812473e-05
6.4032662e-05
5.3419199e-05
4.2027311e-05
3.1576886e-05
2.3792407e-05
1.9633548e-05
1.4566549e-05
1.6926814e-05
2.6765324e-05
4.2020467e-05
7.0962708e-05
0.00011794567
0.00019273327
0.0002983228
0.00040542281
0.00039318833
0.00028994418
0.00018032159
0.00010747541
6.6343361e-05
5.0948916e-05
3.3702482e-05
2.8249021e-05
3.6005169e-05
5.9265507e-05
8.8016401e-05
0.00010737793
0.00010507156
8.8722212e-05
6.8774237e-05
5.1622744e-05
3.7553269e-05
2.7762224e-05
2.2341621e-05
1.2477821e-05
1.6237416e-05
2.7648589e-05
4.3798732e-05
7.2153235e-05
0.00012025411
0.0001976312
0.00030589281
0.00040948484
0.00038655506
0.0002789747
0.00017020124
9.9930317e-05
6.1530743e-05
0.00012123557
1.9324014e-05
3.8527728e-05
4.4913499e-05
7.5257852e-05
0.00012343626
0.00015575973
0.00014750314
0.00011707956
8.4231327e-05
5.8747536e-05
4.0968811e-05
2.9827993e-05
2.4325364e-05
1.3768249e-05
1.48101e-05
2.7022388e-05
4.1491166e-05
6.4752521e-05
0.00010053647
0.00015476681
0.00022534664
0.00028712973
0.00026628408
0.00019617074
0.00012600583
7.4001369e-05
5.3150205e-05
5.8299823e-05
5.5837472e-05
4.9843207e-05
4.8953281e-05
7.9921729e-05
0.00014024244
0.00018193453
0.00017010755
0.00013057778
8.993965e-05
5.9760674e-05
4.036983e-05
2.9688363e-05
2.6365318e-05
1.7762822e-05
1.386512e-05
2.4491719e-05
3.5730608e-05
5.2785868e-05
7.5320196e-05
0.00010531197
0.00014079558
0.00016731139
0.00015373995
0.00012011815
7.990844e-05
6.5958047e-05
7.3994542e-05
7.9643435e-05
7.3762579e-05
6.3176203e-05
5.4224032e-05
6.8021082e-05
0.00011343897
0.00014605445
0.0001395501
0.00011005538
7.7137738e-05
5.2285654e-05
3.5916336e-05
2.6988345e-05
2.1920068e-05
1.755675e-05
1.0660502e-05
1.9571062e-05
2.8463466e-05
4.0809027e-05
5.5080972e-05
7.0935558e-05
8.6313793e-05
9.5614248e-05
8.8766352e-05
7.0098552e-05
7.6761602e-05
0.00010703412
0.00013176521
0.00013485538
0.00011699691
9.1658129e-05
6.9611099e-05
5.887552e-05
7.5886059e-05
9.7529918e-05
9.6409319e-05
7.9037835e-05
5.8504785e-05
4.1383298e-05
3.0347222e-05
2.3707592e-05
1.7243654e-05
2.5044491e-05
5.6435185e-06
1.261912e-05
2.0063466e-05
2.9481145e-05
3.9095987e-05
4.7765852e-05
5.429078e-05
5.60873e-05
5.4859836e-05
7.5991511e-05
0.00011499679
0.00016956988
0.00022726813
0.00023143267
0.00018762124
0.00013247664
9.2846213e-05
6.5286993e-05
5.5214011e-05
6.1993709e-05
6.2849203e-05
5.4425438e-05
4.1914585e-05
3.1958732e-05
2.6173669e-05
2.1235331e-05
1.3153005e-05
6.8278508e-06
1.355484e-05
2.0048468e-05
2.6776597e-05
3.2462728e-05
3.7015161e-05
4.4145952e-05
6.2602996e-05
9.7899652e-05
0.00015914879
0.00025043031
0.00035318402
0.00036397402
0.00028086626
0.00018452414
0.00011765539
7.7592576e-05
5.3497638e-05
4.5164626e-05
4.277285e-05
3.7747426e-05
3.0920317e-05
2.6173494e-05
2.2845641e-05
1.8481124e-05
1.184015e-05
4.9663437e-06
1.114447e-05
1.6489602e-05
2.1724696e-05
2.6886956e-05
3.3382382e-05
4.4884633e-05
6.6924428e-05
0.00010859603
0.00018150177
0.00029296153
0.00042119847
0.00044423953
0.00033834512
0.00021655753
0.00013303486
8.4060369e-05
5.5321353e-05
3.9820481e-05
3.3157989e-05
2.8645218e-05
2.4603537e-05
2.1292145e-05
1.785917e-05
1.1951143e-05
9.1502451e-06
7.860021e-06
1.4603033e-05
1.9763828e-05
2.4761501e-05
3.1159151e-05
4.2137393e-05
6.2027084e-05
9.7547745e-05
0.00015782998
0.00024787932
0.00035235752
0.0003701982
0.00029064062
0.00019280517
0.00012245253
7.9646535e-05
5.3488062e-05
3.7134366e-05
2.8264872e-05
2.3621446e-05
2.0412502e-05
1.7478872e-05
1.3736171e-05
1.0154127e-05
6.229671e-06
1.1998575e-05
1.7664308e-05
2.2349384e-05
2.7642945e-05
3.6069121e-05
5.1225571e-05
7.7158864e-05
0.00011806339
0.00017679041
0.00024335524
0.00025391546
0.00020759459
0.00014679014
9.9892882e-05
6.9330039e-05
4.8371543e-05
3.3685104e-05
2.432069e-05
1.9531465e-05
1.6268663e-05
1.2900052e-05
7.7149657e-06
6.7815569e-06
9.3819373e-06
1.4069284e-05
1.9153165e-05
2.3648792e-05
2.9381843e-05
3.8648535e-05
5.6053294e-05
8.1666168e-05
0.0001159315
0.00015252463
0.00015811654
0.00013618246
0.00010382577
7.7087742e-05
5.6994947e-05
4.1186883e-05
2.8818656e-05
2.0092891e-05
1.5399242e-05
1.2108124e-05
8.1363819e-06
3.8167414e-06
1.0265347e-05
1.4495924e-05
1.9720658e-05
2.4273325e-05
2.9690731e-05
3.7570973e-05
5.3441112e-05
7.3503597e-05
9.1049698e-05
9.528945e-05
8.7250626e-05
7.2652269e-05
5.8092423e-05
4.4877246e-05
3.3300748e-05
2.305142e-05
1.557486e-05
1.1111575e-05
7.5731717e-06
4.31699e-06
1.0300042e-05
1.3827309e-05
1.9325022e-05
2.5340861e-05
2.8275185e-05
3.3904063e-05
4.4289012e-05
5.4139502e-05
5.8665637e-05
5.6923236e-05
5.0611643e-05
4.2597485e-05
3.3992006e-05
2.550494e-05
1.7294879e-05
1.0611809e-05
5.8531194e-06
3.268235e-06
9.6212007e-06
1.1453416e-05
2.0085967e-05
2.268514e-05
2.48478e-05
2.92949e-05
3.4545215e-05
3.8342177e-05
3.9182134e-05
3.6823573e-05
3.2076198e-05
2.571302e-05
1.8260265e-05
1.0899001e-05
7.8860159e-06
7.0236237e-06
7.0617098e-06
1.1479529e-05
1.5557868e-05
2.0550294e-05
2.6873318e-05
3.1576988e-05
3.3275361e-05
3.1379281e-05
2.6272052e-05
1.7802269e-05
1.2422874e-05
7.7687542e-06
1.7793855e-05
1.7009109e-05
1.9552093e-05
2.0208063e-05
2.9208312e-05
2.7600679e-05
2.8498462e-05
2.2296266e-05
1.9974135e-05
2.3490502e-05
2.4926031e-05
2.3927501e-05
1.9725172e-05
2.0198707e-05
1.908148e-05
1.753541e-05
1.2625493e-05
1.4393803e-05
1.7768531e-05
2.0934082e-05
2.3471753e-05
2.428673e-05
2.3192415e-05
2.0885667e-05
1.9339665e-05
2.047908e-05
2.340631e-05
1.7077542e-05
2.5457713e-05
3.8858908e-05
1.3402949e-05
1.4821133e-05
1.7384228e-05
1.9580475e-05
2.1993272e-05
2.5212567e-05
2.8574105e-05
3.0866793e-05
3.0803644e-05
2.8516983e-05
2.6031401e-05
2.5237834e-05
2.4630756e-05
1.8988928e-05
1.6122386e-05
2.1831242e-05
3.175252e-05
1.4418084e-05
1.6787543e-05
1.9688944e-05
2.1867368e-05
2.3819333e-05
2.6736867e-05
3.1920539e-05
3.9306081e-05
4.6496107e-05
4.8342997e-05
4.3376035e-05
3.6428796e-05
3.0949169e-05
2.661236e-05
2.1255273e-05
1.7075776e-05
1.3713595e-05
1.4140434e-05
2.9276023e-05
1.4619077e-05
1.7490905e-05
2.1047218e-05
2.3709352e-05
2.5662021e-05
2.7635854e-05
3.1442492e-05
4.0450774e-05
5.6665955e-05
7.5294971e-05
8.1857732e-05
7.0817282e-05
5.4728728e-05
4.1187802e-05
3.1543685e-05
2.4623482e-05
1.9836078e-05
1.5765742e-05
1.2820898e-05
1.444744e-05
4.3514441e-05
1.6472885e-05
1.8306836e-05
2.22615e-05
2.5912825e-05
2.8686458e-05
3.0470876e-05
3.1987153e-05
3.6089905e-05
4.9697996e-05
7.9410711e-05
0.00011747139
0.00013297039
0.00011334024
8.2972699e-05
5.710664e-05
3.9790199e-05
2.9365397e-05
2.3225549e-05
1.9012613e-05
1.5379731e-05
1.2390756e-05
1.4099881e-05
2.0007997e-05
2.0441167e-05
2.407567e-05
2.8877235e-05
3.4038514e-05
3.814224e-05
3.9571146e-05
3.9042505e-05
4.1041928e-05
5.6453455e-05
9.9334275e-05
0.00016101988
0.00018896101
0.00016146455
0.00011546415
7.5505988e-05
4.9085166e-05
3.425566e-05
2.6470071e-05
2.1983469e-05
1.8483237e-05
1.4641157e-05
1.072865e-05
2.0219232e-05
2.7836256e-05
2.307244e-05
2.6420583e-05
3.1742699e-05
3.9973566e-05
5.0030726e-05
5.7957478e-05
5.8521477e-05
5.2787632e-05
4.8219038e-05
5.7653106e-05
0.00010222152
0.00017869698
0.00021670331
0.00018852475
0.00013467107
8.6588954e-05
5.4692077e-05
3.7349975e-05
2.8921101e-05
2.4513916e-05
2.1243188e-05
1.7595728e-05
1.30132e-05
9.7266654e-06
2.6515475e-05
2.9599638e-05
3.4273008e-05
4.3714985e-05
6.0063887e-05
8.077181e-05
9.6595916e-05
9.4953332e-05
7.8778877e-05
6.1573437e-05
5.655147e-05
8.1387268e-05
0.00014518126
0.00018137642
0.00016314757
0.00011958499
7.8962318e-05
5.1936512e-05
3.7600983e-05
3.0890068e-05
2.7301185e-05
2.4305929e-05
2.0827203e-05
1.6356829e-05
1.0994898e-05
8.6652814e-06
2.6102291e-05
2.4842829e-05
3.2635714e-05
4.2993828e-05
6.2542382e-05
9.4070896e-05
0.00013374885
0.000163064
0.00015616658
0.00012180124
8.4600716e-05
6.0590028e-05
5.8574331e-05
8.4219591e-05
0.00010754033
0.00010292454
8.1147998e-05
5.9196518e-05
4.5049338e-05
3.8217827e-05
3.5032355e-05
3.2282145e-05
2.8940558e-05
2.4974139e-05
2.0336103e-05
1.4953021e-05
1.0456675e-05
2.1832739e-05
2.4145886e-05
3.5328409e-05
5.4473644e-05
8.9673112e-05
0.00014519954
0.00021328565
0.00026166384
0.00024461088
0.00018128335
0.00011628572
7.1512944e-05
5.1294827e-05
5.0366973e-05
5.6689719e-05
5.7432728e-05
5.129089e-05
4.5741452e-05
4.5631984e-05
4.7711941e-05
4.724034e-05
4.2892773e-05
3.658704e-05
3.0250582e-05
2.4573077e-05
1.9720851e-05
1.7488311e-05
2.0345363e-05
2.567066e-05
4.0010668e-05
6.9313155e-05
0.00012415907
0.00020976847
0.00031130765
0.00037845152
0.00034547976
0.00024558557
0.00014763741
8.1508205e-05
5.2721777e-05
4.2402575e-05
3.7787852e-05
3.7504569e-05
3.960036e-05
4.8030168e-05
6.4054105e-05
7.6141946e-05
7.5072234e-05
6.3472881e-05
4.895653e-05
3.679464e-05
2.8285651e-05
2.2861159e-05
2.2090606e-05
4.0523104e-05
2.2480856e-05
2.7580064e-05
4.4666626e-05
8.2918057e-05
0.00015509843
0.00026592375
0.00039273947
0.00046863527
0.00041582266
0.00028446766
0.00016169244
8.2079123e-05
5.7926623e-05
5.4953924e-05
4.2275334e-05
3.5885823e-05
4.2501412e-05
6.5422831e-05
0.00010356673
0.00012762707
0.00012077687
9.4436767e-05
6.569146e-05
4.4106306e-05
3.1134293e-05
2.4052655e-05
2.2667862e-05
2.5808761e-05
2.0400998e-05
2.7846497e-05
4.5374827e-05
8.3876807e-05
0.00015595416
0.00026465264
0.00038597142
0.00045201001
0.00038880877
0.00025652439
0.00014066051
7.1847596e-05
6.0016009e-05
0.00022686364
5.285683e-05
3.9767746e-05
4.8690757e-05
8.5973495e-05
0.00014887809
0.00018474386
0.00016841623
0.00012393404
7.9783295e-05
4.9167277e-05
3.2322737e-05
2.4038079e-05
2.1130205e-05
2.5482203e-05
1.9530963e-05
2.6823621e-05
4.054705e-05
6.8729059e-05
0.00011876102
0.00019025918
0.00026615689
0.00030189708
0.00025137007
0.00016355811
9.2555001e-05
5.7326139e-05
5.2226951e-05
8.9202321e-05
6.1700869e-05
4.5723143e-05
5.1529382e-05
8.9737772e-05
0.00015951671
0.00019797002
0.00017786956
0.00012775729
7.9723302e-05
4.7903036e-05
3.1015703e-05
2.2860769e-05
2.415083e-05
3.2110809e-05
2.095457e-05
2.4432963e-05
3.3725421e-05
5.0613988e-05
7.8316978e-05
0.00011491422
0.00015010176
0.00016245182
0.00013400548
9.3009137e-05
7.0246987e-05
6.9334569e-05
7.8092828e-05
7.8844453e-05
6.8468579e-05
5.6942777e-05
5.3056243e-05
7.2332794e-05
0.0001201799
0.00014886198
0.00013524077
9.9219088e-05
6.410541e-05
4.0794506e-05
2.7785426e-05
2.0241776e-05
2.0930487e-05
3.5815904e-05
2.6509535e-05
2.0594688e-05
2.7449229e-05
3.6852871e-05
4.9721466e-05
6.4933423e-05
7.7840305e-05
8.1266796e-05
7.3410223e-05
7.1000799e-05
8.968592e-05
0.00012550199
0.00015725258
0.00015697734
0.00012379731
8.6656161e-05
6.2472987e-05
5.8219195e-05
7.5420196e-05
9.154345e-05
8.5439693e-05
6.5890226e-05
4.646681e-05
3.2925283e-05
2.4545433e-05
1.8587841e-05
1.6576043e-05
1.74954e-05
1.574778e-05
2.206501e-05
2.8106492e-05
3.4198663e-05
4.0219924e-05
4.5365315e-05
4.9825798e-05
6.0085726e-05
8.8293331e-05
0.00014302955
0.00021714038
0.00028180839
0.00028154903
0.0002113991
0.00013587232
8.3079725e-05
5.6879224e-05
5.1752535e-05
5.4412191e-05
5.17542e-05
4.3240511e-05
3.3941797e-05
2.686214e-05
2.2451402e-05
1.8996644e-05
1.4716268e-05
1.151283e-05
1.7378093e-05
2.2432279e-05
2.6499256e-05
3.0116781e-05
3.4615263e-05
4.404119e-05
6.7208965e-05
0.00011694828
0.00020243255
0.0003159323
0.00041543905
0.00042096285
0.00031102605
0.0001917311
0.00010884072
6.3648414e-05
4.4487735e-05
3.8550205e-05
3.5394421e-05
3.1014428e-05
2.6020102e-05
2.2125002e-05
1.9991252e-05
1.8954716e-05
1.9955735e-05
9.6266792e-06
1.3470302e-05
1.8313526e-05
2.2250848e-05
2.5833047e-05
3.1082363e-05
4.2817255e-05
7.0606549e-05
0.00012755628
0.00022400105
0.00035266778
0.00046945349
0.00048419833
0.00036075335
0.00022220458
0.00012387032
6.8626578e-05
4.3158765e-05
3.2984544e-05
2.8386936e-05
2.4619475e-05
2.0768702e-05
1.7640721e-05
1.5254524e-05
1.3880652e-05
3.2634612e-05
2.1737404e-05
1.0662608e-05
1.4878077e-05
1.9000441e-05
2.2813429e-05
2.8126527e-05
3.8782656e-05
6.2011769e-05
0.00010817495
0.00018617064
0.0002927417
0.00039400018
0.00040981841
0.00031232541
0.00019817052
0.00011423271
6.5076476e-05
4.1126621e-05
3.0458564e-05
2.4977882e-05
2.0850807e-05
1.7172867e-05
1.4629595e-05
1.3775036e-05
1.3036233e-05
1.405718e-05
1.2419522e-05
1.5661555e-05
1.9600192e-05
2.4537807e-05
3.274188e-05
4.8618442e-05
7.8345334e-05
0.0001281439
0.00019747337
0.00026578337
0.00027765027
0.00021941066
0.0001466459
9.0151145e-05
5.5272047e-05
3.7157296e-05
2.7982562e-05
2.2290114e-05
1.7707496e-05
1.3878912e-05
1.1585826e-05
1.1120594e-05
1.3829898e-05
1.2936071e-05
1.6114758e-05
2.0784075e-05
2.6981814e-05
3.713907e-05
5.3638512e-05
7.9755798e-05
0.0001166379
0.00015355313
0.00016140239
0.00013419205
9.6575217e-05
6.4729717e-05
4.4008528e-05
3.2140034e-05
2.483303e-05
1.9174935e-05
1.4399882e-05
1.1104509e-05
1.0448644e-05
1.7363192e-05
1.4585019e-05
1.3903836e-05
1.7731558e-05
2.2873835e-05
3.0356294e-05
3.8044801e-05
4.9222685e-05
6.5242785e-05
8.1035963e-05
8.5822737e-05
7.5940836e-05
5.9790652e-05
4.4994142e-05
3.4327487e-05
2.687254e-05
2.0839961e-05
1.518379e-05
1.0931972e-05
1.0300838e-05
1.6640971e-05
1.5565857e-05
1.6669925e-05
2.0136545e-05
2.7546447e-05
3.0089302e-05
3.2874187e-05
3.8178815e-05
4.4011497e-05
4.6691125e-05
4.4290019e-05
3.8759595e-05
3.2651452e-05
2.6951145e-05
2.1474932e-05
1.6199056e-05
1.1154142e-05
9.4996673e-06
1.3994248e-05
2.3428057e-05
1.6523423e-05
2.5906859e-05
2.4157295e-05
2.306962e-05
2.4962419e-05
2.8183791e-05
3.0670233e-05
3.1048499e-05
2.9401851e-05
2.5997764e-05
2.1200217e-05
1.6066863e-05
1.3372737e-05
1.2008141e-05
2.3721063e-05
1.7060595e-05
1.7335122e-05
2.0963773e-05
2.6222092e-05
3.0329762e-05
3.1786642e-05
3.0385599e-05
2.6919417e-05
2.1548355e-05
2.0412936e-05
2.7498795e-05
5.5846102e-05
3.6089725e-05
3.8816997e-05
4.0197373e-05
4.3698383e-05
4.1787472e-05
3.0826311e-05
2.8451633e-05
3.3841965e-05
3.4992888e-05
3.3120613e-05
2.7617465e-05
2.9894454e-05
2.9405788e-05
2.6176546e-05
1.6375836e-05
1.7718455e-05
2.1149695e-05
2.4517662e-05
2.6987331e-05
2.7738787e-05
2.6732206e-05
2.4846228e-05
2.4784416e-05
2.8087961e-05
3.280964e-05
2.4424114e-05
3.8187546e-05
5.5001084e-05
1.7217819e-05
1.7516879e-05
2.0020852e-05
2.2482845e-05
2.4984614e-05
2.8239868e-05
3.1997751e-05
3.4766893e-05
3.4709339e-05
3.2529293e-05
3.1296877e-05
3.2723589e-05
3.3415382e-05
2.4885905e-05
2.1564094e-05
3.1935121e-05
4.3690121e-05
1.705687e-05
1.8448298e-05
2.1479005e-05
2.4027014e-05
2.6361184e-05
2.9636923e-05
3.5918426e-05
4.5817459e-05
5.5513703e-05
5.7076104e-05
4.9988139e-05
4.1808437e-05
3.6918816e-05
3.3067094e-05
2.5978342e-05
2.080894e-05
1.7259997e-05
1.9564865e-05
4.01809e-05
1.7158034e-05
1.8984191e-05
2.240139e-05
2.5258604e-05
2.7461488e-05
2.9869656e-05
3.4782155e-05
4.7315116e-05
7.0780802e-05
9.6465091e-05
0.00010307219
8.6488373e-05
6.4216026e-05
4.7187174e-05
3.6218577e-05
2.8186501e-05
2.2752687e-05
1.8298712e-05
1.5682589e-05
2.0400813e-05
5.6480858e-05
2.0215465e-05
2.0544965e-05
2.3872139e-05
2.7464703e-05
3.0436372e-05
3.2365685e-05
3.4242511e-05
4.0303085e-05
6.0577883e-05
0.00010418152
0.00015554101
0.00017138759
0.00014391827
0.00010256691
6.7552861e-05
4.5168272e-05
3.2541588e-05
2.5647886e-05
2.1136141e-05
1.7489817e-05
1.5321222e-05
1.9827798e-05
2.6427525e-05
2.4501587e-05
2.6958695e-05
3.1193753e-05
3.675798e-05
4.1673203e-05
4.317878e-05
4.223903e-05
4.596614e-05
7.0214904e-05
0.00013305306
0.00021298763
0.00023988805
0.00020470489
0.00014590962
9.29116e-05
5.745687e-05
3.816344e-05
2.8842635e-05
2.4038215e-05
2.0600684e-05
1.7029026e-05
1.4379806e-05
3.1952157e-05
3.9168189e-05
3.0106231e-05
3.1977866e-05
3.5768984e-05
4.4027344e-05
5.6399273e-05
6.6784852e-05
6.7312349e-05
5.9150201e-05
5.3801484e-05
7.0723558e-05
0.00013725789
0.00023406741
0.00026882426
0.00023465898
0.00016942752
0.00010782012
6.5266677e-05
4.2040926e-05
3.1417077e-05
2.6617014e-05
2.3578147e-05
2.0257851e-05
1.6227911e-05
1.520817e-05
3.7077594e-05
3.9812242e-05
4.1816535e-05
4.9558206e-05
6.8566372e-05
9.5471274e-05
0.00011588427
0.00011389385
9.2373384e-05
6.9451521e-05
6.5856663e-05
0.00010704467
0.00019382055
0.0002308995
0.00020617254
0.0001512002
9.7800247e-05
6.1200402e-05
4.1838506e-05
3.3341805e-05
2.9454823e-05
2.67352e-05
2.3650259e-05
1.9563267e-05
1.4785035e-05
1.5840975e-05
4.2891822e-05
3.4069318e-05
4.1840536e-05
5.0507291e-05
7.1649562e-05
0.00011189675
0.00016270435
0.00019721379
0.00018910826
0.00014701962
9.875026e-05
6.8178172e-05
7.0550274e-05
0.00011135319
0.00014148896
0.00013258264
0.00010153138
7.0603666e-05
5.0955618e-05
4.1916433e-05
3.8064013e-05
3.5052727e-05
3.1558653e-05
2.7642234e-05
2.3281227e-05
1.8386247e-05
1.6396822e-05
3.2899453e-05
3.0846497e-05
4.1735255e-05
6.2123953e-05
0.00010608549
0.00017812064
0.00026052169
0.00031041051
0.00029109941
0.00021986672
0.00013997899
8.1743287e-05
5.7124673e-05
6.0131835e-05
7.0512665e-05
7.0189871e-05
6.0243599e-05
5.1768334e-05
5.130895e-05
5.4634635e-05
5.4706189e-05
4.9219317e-05
4.1029255e-05
3.3298247e-05
2.7202813e-05
2.280359e-05
2.4511978e-05
2.7968247e-05
3.0222198e-05
4.5065174e-05
8.049786e-05
0.0001521721
0.00026016309
0.00037447365
0.00043427679
0.00039908605
0.00029528892
0.0001802558
9.5613464e-05
5.8691671e-05
4.7509327e-05
4.3936595e-05
4.3250846e-05
4.5165626e-05
5.5749116e-05
7.7810091e-05
9.5545994e-05
9.5144488e-05
7.9169734e-05
5.852586e-05
4.1629772e-05
3.1038777e-05
2.5679278e-05
2.9075915e-05
5.9819111e-05
3.0558783e-05
3.1248829e-05
5.0456038e-05
9.9736387e-05
0.00019426965
0.00032954252
0.00046426976
0.00052416657
0.00047148692
0.00034051421
0.00019846536
9.6529771e-05
6.73773e-05
6.9033303e-05
5.6231861e-05
4.1920303e-05
4.9636443e-05
8.1728753e-05
0.00013455514
0.00016709823
0.00015937621
0.00012366809
8.2774147e-05
5.1774526e-05
3.4383621e-05
2.6543269e-05
2.8337724e-05
4.1644044e-05
2.5173315e-05
3.1077342e-05
5.2030657e-05
0.00010367318
0.00020014529
0.00033538626
0.00046788869
0.00052314315
0.00045883432
0.00031587329
0.00017365985
8.3857551e-05
7.3165848e-05
0.00030189888
8.8677567e-05
4.5086911e-05
5.8791303e-05
0.00011351796
0.0001963874
0.00023929506
0.00022093711
0.00016349089
0.00010240042
5.8797282e-05
3.5933185e-05
2.6347678e-05
2.5395161e-05
3.6548179e-05
2.6588575e-05
2.9975377e-05
4.6330834e-05
8.4922212e-05
0.00015450547
0.00024950024
0.00034205015
0.00037879469
0.00031799188
0.00020643176
0.00011121529
6.5100285e-05
6.2026699e-05
0.00012496582
7.7451159e-05
5.0663054e-05
6.203046e-05
0.00011990553
0.00020907209
0.0002511822
0.00022901948
0.00016623028
0.00010107788
5.6667419e-05
3.4487906e-05
2.557157e-05
2.9013904e-05
4.6921156e-05
3.0181633e-05
2.7503764e-05
3.7783042e-05
6.0458925e-05
9.9739488e-05
0.00015055412
0.00019635647
0.00020892282
0.00016855505
0.00011125587
8.0076057e-05
7.9300778e-05
9.0779357e-05
9.2036082e-05
7.8239517e-05
6.3086059e-05
6.0887569e-05
9.4398435e-05
0.0001608021
0.00019482638
0.0001766363
0.0001280023
7.8943497e-05
4.7053377e-05
3.1238891e-05
2.350177e-05
2.6016693e-05
4.7762854e-05
4.2141106e-05
2.3643837e-05
3.0321981e-05
4.1733419e-05
5.9209273e-05
8.0188133e-05
9.6934445e-05
9.9064312e-05
8.5996805e-05
8.1832411e-05
0.00010598446
0.00015269181
0.00019258947
0.00019347882
0.00015049888
0.00010087488
6.9987727e-05
6.9774736e-05
9.9150094e-05
0.00012116516
0.00011108769
8.2411631e-05
5.4848673e-05
3.7695257e-05
2.9035922e-05
2.3350464e-05
2.16378e-05
3.0223158e-05
1.9038372e-05
2.4738974e-05
3.0919066e-05
3.7959915e-05
4.5317092e-05
5.1412549e-05
5.6408671e-05
6.8901233e-05
0.00010534213
0.00017577649
0.00026512704
0.00033649237
0.00034070247
0.00025959066
0.00016441369
9.538387e-05
6.3862411e-05
6.2013304e-05
6.8064941e-05
6.3707434e-05
5.1069986e-05
3.8982409e-05
3.1780211e-05
2.8705353e-05
2.6095431e-05
2.0252516e-05
1.5300088e-05
2.0422341e-05
2.5055673e-05
2.8906065e-05
3.2544782e-05
3.7634342e-05
4.9315344e-05
7.937545e-05
0.00014357241
0.00024747626
0.00037138594
0.00046811001
0.00048467579
0.00037467528
0.00023494629
0.0001296265
7.1342011e-05
4.9342901e-05
4.4102047e-05
4.062014e-05
3.5203705e-05
3.0047106e-05
2.7305764e-05
2.6960301e-05
2.7567124e-05
2.9484581e-05
1.6047828e-05
1.6824584e-05
2.1057167e-05
2.4616868e-05
2.795897e-05
3.3744347e-05
4.8422553e-05
8.4487118e-05
0.00015695212
0.00027162143
0.00040951178
0.0005215527
0.00055004168
0.00043310495
0.0002748895
0.00015151962
7.9119652e-05
4.6855616e-05
3.5702427e-05
3.1249415e-05
2.7622337e-05
2.419594e-05
2.1774884e-05
1.9924892e-05
1.9015054e-05
4.6883164e-05
3.1432587e-05
1.4396215e-05
1.7476531e-05
2.1262439e-05
2.492749e-05
3.0604002e-05
4.3361656e-05
7.3006428e-05
0.00013262124
0.00022996226
0.00035413972
0.00046399787
0.00049205782
0.00038996357
0.00025228858
0.00014307172
7.6533877e-05
4.4860206e-05
3.2565401e-05
2.7360524e-05
2.3686056e-05
2.0528035e-05
1.8576736e-05
1.8477308e-05
1.8103994e-05
2.3261683e-05
1.5502257e-05
1.7916325e-05
2.1820549e-05
2.7042739e-05
3.6223286e-05
5.5254133e-05
9.2819236e-05
0.00015729571
0.00024492802
0.00032836706
0.00035060604
0.00028337023
0.00018994328
0.00011324904
6.4674538e-05
4.0519531e-05
3.0114669e-05
2.4759246e-05
2.0566886e-05
1.7075891e-05
1.5388903e-05
1.602655e-05
2.0593855e-05
1.5934527e-05
1.8802875e-05
2.3877976e-05
3.0829631e-05
4.2400937e-05
6.1095399e-05
9.3476014e-05
0.0001419289
0.00019129535
0.00020660459
0.00017367766
0.00012335613
7.8944635e-05
5.0080503e-05
3.4908869e-05
2.7173975e-05
2.1902806e-05
1.7404019e-05
1.4478613e-05
1.4654816e-05
2.9775388e-05
2.0798152e-05
1.764327e-05
2.1753043e-05
2.8101191e-05
3.7663004e-05
4.5043006e-05
5.5922365e-05
7.499837e-05
9.6492484e-05
0.00010546042
9.3718085e-05
7.2023758e-05
5.1722665e-05
3.7756542e-05
2.9303005e-05
2.3494426e-05
1.827192e-05
1.4376215e-05
1.4747494e-05
2.7769349e-05
2.1386988e-05
2.2410225e-05
2.6590619e-05
3.7528859e-05
3.8944365e-05
3.9144714e-05
4.2926739e-05
4.9228893e-05
5.2939299e-05
5.0254622e-05
4.3271997e-05
3.5725524e-05
2.9366203e-05
2.4104258e-05
1.9522816e-05
1.509828e-05
1.4220785e-05
2.4416057e-05
3.5419818e-05
2.3215973e-05
3.6240395e-05
3.2994877e-05
2.9358847e-05
2.9231345e-05
3.1673796e-05
3.399316e-05
3.428075e-05
3.2379077e-05
2.8795975e-05
2.4264622e-05
1.9873597e-05
1.8004641e-05
1.821388e-05
3.4336225e-05
2.3546926e-05
2.3561526e-05
2.6800671e-05
3.2374433e-05
3.7003641e-05
3.8725122e-05
3.7545075e-05
3.4953499e-05
2.8733613e-05
3.1991606e-05
3.6702875e-05
7.2985226e-05
5.1695272e-05
5.6518744e-05
5.9470395e-05
6.2492653e-05
5.742049e-05
4.1989309e-05
3.6969396e-05
4.3347102e-05
4.4074002e-05
4.1257828e-05
3.4445556e-05
3.7556971e-05
3.7947402e-05
3.5892371e-05
2.0704574e-05
2.1680433e-05
2.5319467e-05
2.917189e-05
3.2015034e-05
3.2988194e-05
3.2251426e-05
3.1237957e-05
3.3533944e-05
3.9597213e-05
4.4477567e-05
3.1983644e-05
5.0334134e-05
6.9193394e-05
2.1670071e-05
2.1189787e-05
2.3511358e-05
2.6017889e-05
2.8760706e-05
3.2587531e-05
3.7265314e-05
4.0714541e-05
4.0695696e-05
3.897693e-05
4.0114082e-05
4.5324402e-05
4.8098572e-05
3.3570001e-05
2.7749894e-05
4.0279621e-05
5.5418134e-05
2.0567004e-05
2.1434842e-05
2.4485619e-05
2.7190208e-05
2.9805112e-05
3.3864747e-05
4.2186263e-05
5.543865e-05
6.7807222e-05
6.8520147e-05
5.8981091e-05
5.0166894e-05
4.7110773e-05
4.4490205e-05
3.3855583e-05
2.654802e-05
2.179593e-05
2.5053036e-05
4.979464e-05
2.0730402e-05
2.2014278e-05
2.5282577e-05
2.8188749e-05
3.0524335e-05
3.3399892e-05
4.0168395e-05
5.7896852e-05
9.0098881e-05
0.00012303137
0.00012828327
0.00010487234
7.6041468e-05
5.6048706e-05
4.4154808e-05
3.4362478e-05
2.7743947e-05
2.2376409e-05
1.9449996e-05
2.6342984e-05
6.6518076e-05
2.497971e-05
2.4568884e-05
2.7286534e-05
3.0695678e-05
3.3818347e-05
3.5857609e-05
3.81854e-05
4.7158242e-05
7.6780156e-05
0.00013640001
0.00020032032
0.00021377603
0.00017744273
0.00012458955
8.0367513e-05
5.2953344e-05
3.7860794e-05
2.9903112e-05
2.4814124e-05
2.0889782e-05
1.9005232e-05
2.6156303e-05
3.3780844e-05
3.1074418e-05
3.2274496e-05
3.5490534e-05
4.1236892e-05
4.7014782e-05
4.8651344e-05
4.7367033e-05
5.379318e-05
9.0371526e-05
0.00017580115
0.00026973181
0.00029074885
0.00024852995
0.00017848991
0.00011294545
6.839189e-05
4.4263306e-05
3.2973008e-05
2.7516037e-05
2.3918526e-05
2.0430593e-05
1.8836101e-05
4.4850855e-05
4.8736579e-05
4.0875855e-05
4.1572134e-05
4.2803325e-05
4.9975428e-05
6.4217619e-05
7.7187361e-05
7.7917044e-05
6.7445293e-05
6.2139825e-05
8.9903441e-05
0.00018239437
0.00029282118
0.00031690467
0.00027828409
0.00020555372
0.00013217352
7.8945315e-05
4.9208574e-05
3.5726689e-05
3.004183e-05
2.6894512e-05
2.3720076e-05
2.0167181e-05
2.1014222e-05
5.0165198e-05
5.7011392e-05
5.5253811e-05
5.8670326e-05
7.8247843e-05
0.00011049463
0.00013538893
0.00013350113
0.00010732933
7.945313e-05
7.9741054e-05
0.00014267516
0.00025097119
0.00028178215
0.00025035037
0.00018624568
0.0001206293
7.3899587e-05
4.861042e-05
3.7627721e-05
3.2953923e-05
3.0104879e-05
2.7115394e-05
2.3241245e-05
1.9063956e-05
2.5591697e-05
5.869447e-05
4.8088655e-05
5.7365349e-05
6.277052e-05
8.2490047e-05
0.00012936932
0.00019000816
0.000228192
0.00021945458
0.0001719526
0.00011419709
7.8701514e-05
8.9384412e-05
0.00014915408
0.00018504474
0.00016947547
0.00012748101
8.6288293e-05
5.9998259e-05
4.8081679e-05
4.3254344e-05
3.9681095e-05
3.5598011e-05
3.127304e-05
2.680882e-05
2.2355885e-05
2.2920298e-05
4.1911092e-05
4.1509735e-05
5.204157e-05
7.1986872e-05
0.00012232845
0.00020950566
0.00030285554
0.00034949415
0.00032873856
0.00025545467
0.00016433417
9.3883522e-05
6.6312705e-05
7.5425389e-05
9.0991153e-05
8.8610266e-05
7.3343247e-05
6.1192504e-05
6.0209485e-05
6.4729852e-05
6.5590749e-05
5.8661899e-05
4.7887038e-05
3.7993202e-05
3.0880684e-05
2.6827719e-05
3.1500056e-05
3.5028389e-05
3.7439763e-05
5.2287387e-05
9.2426138e-05
0.00018013561
0.00030877521
0.0004287981
0.00047267944
0.00043687808