/*--------------------------------*- C++ -*----------------------------------*\
| =========                 |                                                 |
| \\      /  F ield         | OpenFOAM: The Open Source CFD Toolbox           |
|  \\    /   O peration     | Version:  2406                                  |
|   \\  /    A nd           | Website:  www.openfoam.com                      |
|    \\/     M anipulation  |                                                 |
\*---------------------------------------------------------------------------*/
FoamFile
{
    version     2.0;
    format      ascii;
    arch        "LSB;label=32;scalar=64";
    class       volScalarField;
    location    "150";
    object      k;
}
// * * * * * * * * * * * * * * * * * * * * * * * * * * * * * * * * * * * * * //

dimensions      [0 2 -2 0 0 0 0];

internalField   nonuniform List<scalar> 
150387
(
0.00016234375
3.4427375e-05
4.0521239e-05
4.5472675e-05
4.5731007e-05
3.8051581e-05
1.808659e-05
1.0709116e-05
1.8982434e-05
2.0343535e-05
2.7353947e-05
3.6831732e-05
4.3080107e-05
5.1042213e-05
5.7206802e-05
5.986642e-05
5.9506058e-05
5.6979811e-05
5.3224592e-05
4.9545546e-05
2.4275844e-05
2.1251332e-05
3.1165927e-05
3.761138e-05
4.0148817e-05
4.3569637e-05
4.9790645e-05
5.9440306e-05
6.7958279e-05
7.1565005e-05
7.1260103e-05
7.1145594e-05
7.0724086e-05
7.1700128e-05
5.7425873e-05
3.7561299e-05
1.2433707e-05
2.7984443e-05
2.9937321e-05
4.279271e-05
4.617374e-05
4.7295859e-05
4.8488155e-05
5.2096845e-05
6.218115e-05
7.7509921e-05
9.1953602e-05
9.7852381e-05
9.3378346e-05
8.5205168e-05
7.9385474e-05
7.7336382e-05
6.8554402e-05
5.7526531e-05
4.2232723e-05
1.7907499e-05
3.66775e-05
3.2376923e-05
4.9511847e-05
5.4411562e-05
5.5972383e-05
5.6690857e-05
5.7490509e-05
6.2230069e-05
7.8396415e-05
0.00010362446
0.00012998639
0.00014225461
0.00013405064
0.00011517558
9.5688111e-05
8.3210988e-05
7.3510515e-05
6.5073668e-05
5.5466724e-05
4.1788189e-05
1.984555e-05
3.2425118e-05
5.36309e-05
6.1018285e-05
6.3964934e-05
6.6317217e-05
6.7415687e-05
6.7326586e-05
7.1807493e-05
9.4060603e-05
0.00013311177
0.00017637345
0.00020047092
0.00018772155
0.00015698591
0.00012393108
9.7414308e-05
7.9546725e-05
6.8422121e-05
5.9899242e-05
5.0616735e-05
3.7699702e-05
1.5733999e-05
2.7749486e-05
5.5201235e-05
6.6538213e-05
7.1137525e-05
7.6296975e-05
8.174815e-05
8.3576282e-05
8.0997786e-05
8.1065334e-05
0.00010479657
0.00015807097
0.00022483192
0.00026575271
0.00024823229
0.00020261957
0.00015503373
0.00011657024
8.9241309e-05
7.2412841e-05
6.1864372e-05
5.3228106e-05
4.3653609e-05
2.8685653e-05
8.9209253e-06
2.0295341e-05
5.3664373e-05
7.0632799e-05
7.7106972e-05
8.4655019e-05
9.6785027e-05
0.0001079442
0.00011021537
0.00010283058
9.3215816e-05
0.00010513051
0.00016585394
0.00025366883
0.00031157193
0.00029321459
0.0002365475
0.00017701189
0.00012984689
9.6753991e-05
7.6080361e-05
6.3546574e-05
5.4413783e-05
4.5618563e-05
3.5062321e-05
1.9638768e-05
4.3523915e-05
7.3741031e-05
8.2443251e-05
9.0383959e-05
0.00010758906
0.00013166727
0.00015131907
0.00015335947
0.00013807732
0.00011477259
0.00010260655
0.00014166852
0.00023149326
0.00029071152
0.00027971712
0.00022886935
0.00017229091
0.00012677165
9.5439705e-05
7.6374602e-05
6.4646808e-05
5.5703849e-05
4.7207386e-05
3.8270644e-05
2.7014099e-05
6.3330871e-06
5.4970369e-05
7.7986409e-05
8.8492943e-05
0.00010902003
0.00014291928
0.000182785
0.00021582804
0.00021678405
0.00018972492
0.0001487945
0.00011371748
0.00010498532
0.00016178178
0.00020961071
0.00021074036
0.00018045522
0.00014109231
0.0001082013
8.7720701e-05
7.7480505e-05
7.0082621e-05
6.1627575e-05
5.1951419e-05
4.1989121e-05
3.1302103e-05
1.5926949e-05
1.0282036e-05
6.0536237e-05
7.9119953e-05
9.9773467e-05
0.00013790455
0.00018982595
0.00025148432
0.000305989
0.00030496582
0.00025709163
0.00019262605
0.0001361722
9.827519e-05
9.6721747e-05
0.00012444684
0.00013357332
0.00012142522
0.00010246091
9.2119411e-05
9.5140525e-05
9.5972747e-05
8.9442039e-05
7.8017635e-05
6.4516576e-05
5.1629465e-05
4.0435625e-05
3.1407972e-05
3.6743169e-05
6.3524343e-05
8.2932956e-05
0.00011700408
0.00017178993
0.00024550097
0.00033584791
0.00041640991
0.00041056146
0.00033342906
0.00023714729
0.00015818671
0.00010454812
7.6763632e-05
6.8680756e-05
7.5283772e-05
7.5198633e-05
8.5627896e-05
0.00011395585
0.0001335374
0.00013501299
0.00012209704
0.00010220353
8.1399104e-05
6.3521489e-05
5.0434709e-05
4.4301375e-05
1.466544e-05
4.5181639e-05
6.5199358e-05
8.8438087e-05
0.00013269442
0.00020080751
0.00029608852
0.00041359828
0.00051523591
0.0004994467
0.00039251948
0.00026690384
0.00016921615
0.00010798531
7.5963817e-05
5.7321485e-05
5.4094789e-05
6.8588624e-05
0.00011107976
0.00016393941
0.00019292463
0.00018944874
0.00016431773
0.00013135212
9.9700079e-05
7.4776826e-05
5.8184526e-05
5.0171381e-05
1.6720003e-05
4.1095079e-05
6.4347826e-05
8.9868888e-05
0.00013508733
0.00020459863
0.0003023016
0.00042150053
0.00051879371
0.00049255744
0.00037978889
0.00025289844
0.00015409069
9.0328928e-05
4.648484e-05
2.1555421e-05
6.2407986e-05
8.1509036e-05
0.00014234371
0.00021956554
0.00026283882
0.00025147222
0.00020828148
0.00015830391
0.00011498769
8.2990598e-05
6.3570072e-05
5.1552074e-05
1.9081565e-05
3.9045705e-05
6.0999393e-05
8.3984884e-05
0.00012153969
0.00017685947
0.00024939346
0.0003329495
0.00039550878
0.00036911258
0.00028565226
0.00018957498
0.00011353083
8.3678115e-05
6.6707781e-05
7.6652813e-05
8.0970669e-05
8.8261772e-05
0.00015324022
0.00024517412
0.00029730947
0.0002814251
0.00022773107
0.0001680094
0.0001186701
8.4650593e-05
6.5997944e-05
5.8155228e-05
2.3508967e-05
3.5372937e-05
5.4823673e-05
7.2627059e-05
9.9875987e-05
0.00013788003
0.00018313945
0.00022984667
0.000259516
0.00023869582
0.00018546086
0.00012502122
0.00010356089
0.00011768518
0.00012414802
0.00011584224
0.00010071603
9.3448369e-05
0.00013228261
0.00021027671
0.00025534349
0.0002444697
0.00020083633
0.00015043353
0.00010816445
8.0651772e-05
6.5826181e-05
5.4360021e-05
1.9931865e-05
1.8554705e-05
4.5048133e-05
5.9588903e-05
7.8669806e-05
0.00010288965
0.00012896948
0.0001524567
0.0001629977
0.00014660997
0.00011764391
0.00012538073
0.0001681537
0.00020596705
0.00021042326
0.00018456078
0.00014577233
0.00011470143
0.0001104397
0.00015387205
0.00018800673
0.000184647
0.00015652067
0.00012153674
9.2766579e-05
7.6079211e-05
6.4269053e-05
4.464112e-05
2.0192709e-05
7.7868411e-06
3.3541387e-05
4.6748986e-05
6.0643485e-05
7.6110572e-05
9.0462436e-05
0.00010147818
0.00010435939
0.00010254441
0.00013075362
0.00018855155
0.00025956371
0.00032517174
0.00032975622
0.00027714733
0.00020770609
0.00014997301
0.00011395089
0.00011210786
0.00013041007
0.00013157949
0.00011604907
9.5437343e-05
8.0653121e-05
7.2634569e-05
6.2510004e-05
3.4368835e-05
2.1288781e-05
3.7089329e-05
4.7792719e-05
5.8544763e-05
6.7827879e-05
7.6073755e-05
8.7720088e-05
0.0001165578
0.00017117275
0.00025220892
0.00035873156
0.00046237625
0.00047173177
0.0003843588
0.00027433823
0.00018912044
0.00013126253
0.00010121771
9.6574762e-05
9.5793548e-05
8.8557944e-05
7.9672237e-05
7.3847951e-05
6.8896852e-05
5.9148796e-05
2.4002405e-05
1.3389942e-05
3.24256e-05
4.2606871e-05
5.2133846e-05
6.0862099e-05
7.172511e-05
9.041465e-05
0.00012691451
0.00018826777
0.00028123526
0.00040540709
0.00052860473
0.00054600869
0.00044358908
0.00031264573
0.00021076851
0.00014250722
0.00010118242
8.277201e-05
7.681747e-05
7.2447056e-05
6.8482679e-05
6.4267331e-05
5.741628e-05
3.8578803e-05
1.1565424e-05
2.2964713e-05
3.9017745e-05
4.9506717e-05
5.8557659e-05
6.9353455e-05
8.7029421e-05
0.00011980041
0.00017370078
0.00025325166
0.00035860403
0.00046469831
0.00048159875
0.00039861347
0.00028817256
0.00019912975
0.00013741779
9.7719523e-05
7.603389e-05
6.6849308e-05
6.3449793e-05
6.0873073e-05
5.655342e-05
4.8117548e-05
2.4087987e-05
1.0271004e-05
3.3347125e-05
4.6856236e-05
5.6475485e-05
6.6090631e-05
7.9377115e-05
0.00010356591
0.00014358498
0.00020168402
0.00027626963
0.00035098473
0.00036291072
0.00030936781
0.00023383387
0.00016932955
0.00012151468
8.8946421e-05
6.8974585e-05
5.8947513e-05
5.5071549e-05
5.1669363e-05
4.5063487e-05
2.7362123e-05
6.3116025e-06
1.8006082e-05
3.9804307e-05
5.3306138e-05
6.3256186e-05
7.2919469e-05
8.8176641e-05
0.00011204777
0.00014998457
0.00019762079
0.00024342907
0.00025120129
0.00022213093
0.00017724832
0.00013514734
0.00010151291
7.7079509e-05
6.0437719e-05
5.0850041e-05
4.6111989e-05
4.1182739e-05
2.9761005e-05
8.1979589e-06
2.0409719e-05
4.2826514e-05
5.7912807e-05
6.844871e-05
8.0450596e-05
8.9395281e-05
0.00010840668
0.00013570226
0.0001611518
0.00016749976
0.00015396535
0.00012923859
0.0001038034
8.1629091e-05
6.3954207e-05
5.0462503e-05
4.1661353e-05
3.5846657e-05
2.7334898e-05
1.069294e-05
1.805514e-05
4.1994792e-05
5.9002535e-05
7.5747646e-05
8.0669732e-05
8.4905748e-05
9.4385813e-05
0.00010606373
0.00011128148
0.00010616144
9.3515997e-05
7.8766557e-05
6.4279069e-05
5.0986469e-05
3.9862734e-05
3.0508447e-05
1.9597527e-05
6.9163433e-06
1.0904696e-05
3.1977294e-05
6.3837954e-05
6.9180586e-05
7.0471648e-05
7.3159424e-05
7.6842266e-05
7.9343278e-05
7.7526958e-05
7.0864922e-05
6.1199645e-05
4.9980346e-05
3.8152822e-05
2.5654865e-05
1.5807774e-05
6.4246155e-06
1.3803549e-05
3.0846279e-05
4.411583e-05
5.4390595e-05
6.4128758e-05
6.8693213e-05
6.8172469e-05
6.2384594e-05
5.0051835e-05
3.4343746e-05
1.8801059e-05
1.0336556e-05
1.6985997e-05
2.2032748e-05
2.6634147e-05
2.6257186e-05
2.0383978e-05
2.1307525e-05
2.2280962e-05
3.3597694e-05
6.2024159e-05
8.1623089e-05
8.7371822e-05
8.5372632e-05
7.0962431e-05
3.7175405e-05
2.5733592e-05
2.7490598e-05
5.662736e-05
6.691947e-05
7.9671806e-05
9.2734841e-05
0.00010389387
0.00011004356
0.00011010059
0.00010539463
0.0001007017
0.00010000147
9.6641229e-05
4.8715377e-05
2.0790966e-05
2.9984194e-05
5.441029e-05
6.940569e-05
7.8349172e-05
8.5366868e-05
9.4447691e-05
0.00010762364
0.00012176653
0.00013236925
0.00013518513
0.00013175122
0.0001281064
0.00012739939
0.00012404508
9.7801537e-05
6.5601457e-05
3.4414619e-05
3.0832447e-05
6.7701617e-05
8.2620791e-05
8.9861291e-05
9.4360502e-05
0.00010013017
0.00011071708
0.00012964163
0.00015387798
0.00017563091
0.00018203871
0.00017119705
0.00015552044
0.00014374074
0.00013341711
0.00011402576
9.4571143e-05
7.0098047e-05
3.5442117e-05
2.921383e-05
7.1769255e-05
9.0576821e-05
9.9932241e-05
0.0001052472
0.00010911567
0.00011449309
0.00012773345
0.0001569569
0.00020077832
0.00024498093
0.00026000503
0.00023718207
0.00020067634
0.00016787862
0.00014386874
0.00012342658
0.00010735415
8.9969725e-05
6.871665e-05
3.6843118e-05
3.2327332e-05
7.4297163e-05
9.7344255e-05
0.00010936805
0.00011702575
0.00012305058
0.00012656672
0.00013008508
0.00014398198
0.00018466297
0.00025525144
0.00033221356
0.00036153002
0.0003258731
0.00026484911
0.00020664059
0.00016318997
0.00013388047
0.00011493328
9.9757066e-05
8.4053829e-05
6.3754617e-05
3.2229432e-05
7.1183366e-05
0.00010388532
0.00011931421
0.00012993878
0.00014151258
0.00015140852
0.00015400393
0.00015162799
0.00015934752
0.00020423989
0.00029936815
0.00041281236
0.00046000819
0.00041471535
0.00033117185
0.00024920855
0.00018675383
0.00014616216
0.00012192491
0.0001058483
9.2029408e-05
7.5865802e-05
4.948529e-05
2.3090118e-05
3.7356364e-05
0.00011051956
0.00012946413
0.00014205112
0.00015966862
0.00018293269
0.00020121945
0.00020166876
0.00018692784
0.00017732483
0.00020724898
0.00030758598
0.00044478381
0.00050643739
0.00046150181
0.00036779515
0.00027345418
0.00020093386
0.00015446537
0.00012776185
0.00011119308
9.7951111e-05
8.3537266e-05
6.5431325e-05
4.2204789e-05
0.00010236128
0.00013837365
0.0001534469
0.00017239417
0.00020754973
0.0002517362
0.00028352535
0.00027977935
0.00024514702
0.00020708039
0.00020041221
0.00026513782
0.0003893847
0.00045144961
0.00042028747
0.00034060394
0.00025749117
0.00019385081
0.00015430415
0.000132069
0.00011767622
0.0001051546
9.1317901e-05
7.4968829e-05
5.2897602e-05
1.5633787e-05
2.1826342e-05
0.0001128926
0.00014799258
0.0001727021
0.0002141577
0.00027883523
0.00035303033
0.00040348913
0.0003918762
0.00032975278
0.00025553243
0.00020443427
0.00020504076
0.00026914743
0.00031751001
0.00030802895
0.00026188647
0.00021102434
0.00017447982
0.00015485553
0.00014361341
0.00013240607
0.00011906121
0.00010363681
8.6763044e-05
6.6346312e-05
3.6296577e-05
3.3580143e-05
0.0001154372
0.00015263569
0.00019667212
0.00027022802
0.00037282808
0.00048417129
0.00055669706
0.00053241778
0.00043292326
0.00031765101
0.00022565006
0.00017795341
0.00017818572
0.00019945392
0.00020267185
0.00018769994
0.00017411165
0.00017520969
0.00018083265
0.0001778108
0.00016363806
0.00014324544
0.00012161011
0.00010175807
8.3199972e-05
6.3234262e-05
6.099799e-05
0.00012039683
0.00016135038
0.00022778006
0.00033494405
0.00047752832
0.00062599025
0.00071652579
0.00067461937
0.00053306237
0.00037427237
0.00024731022
0.00017531488
0.00013939694
0.0001319758
0.00013676216
0.00014884074
0.00017870524
0.00022123488
0.00024823957
0.00024433346
0.00021608358
0.00017864853
0.00014372122
0.00011670683
9.7104258e-05
8.3994527e-05
2.7483331e-05
8.2206153e-05
0.00012451811
0.00017073601
0.00025491618
0.00038739141
0.00055907611
0.00073150443
0.000827619
0.00076449942
0.00058849995
0.0003977499
0.00025032775
0.00017747075
0.00013904088
0.00011815021
0.00012167521
0.00015539791
0.00022351883
0.00030746591
0.00035207917
0.00033765052
0.00028456596
0.00022115842
0.00016673044
0.00012911913
0.00010522976
9.2725718e-05
3.3184667e-05
9.1744683e-05
0.00012351826
0.00017105089
0.00025577262
0.00038708774
0.00055433435
0.0007186825
0.00080261875
0.00072626022
0.00054601755
0.00036011594
0.00022452032
0.00016806746
7.4522795e-05
6.3121626e-05
0.0001312631
0.00017565732
0.00027336637
0.00039514811
0.00045392137
0.00042461626
0.00034385962
0.00025463205
0.00018267327
0.00013623314
0.00010860876
8.7631393e-05
3.4482183e-05
7.5331032e-05
0.00011783139
0.00015655995
0.0002226467
0.00032165434
0.00044262748
0.00055678543
0.00060768695
0.0005386723
0.00040161117
0.00026985316
0.00019039385
0.00016203323
0.00013650378
0.00013989591
0.00015524509
0.00018492
0.00028454204
0.00041664474
0.00047831641
0.00044298806
0.00035306661
0.00025646563
0.00018174023
0.00013565845
0.00010912019
9.8367729e-05
3.9668772e-05
7.2540443e-05
0.00010629877
0.00013544277
0.00017970945
0.0002425996
0.00031497303
0.00037784865
0.00039927312
0.00035198236
0.00027404924
0.00022351511
0.00022153561
0.00024098298
0.00024176552
0.0002172379
0.00018883408
0.00018823734
0.00024797979
0.00034864644
0.00039893532
0.00037214751
0.00030097108
0.00022386189
0.00016546676
0.00012949823
0.00010379437
8.9759875e-05
3.5637395e-05
4.4640392e-05
8.9851947e-05
0.00011401172
0.00014253809
0.00017777084
0.00021501763
0.00024455202
0.0002528753
0.00023604106
0.00022945911
0.00026817337
0.00033633275
0.00039128531
0.00038863513
0.00032797336
0.0002557505
0.00020876135
0.00020969085
0.00025774527
0.00029100492
0.00027609668
0.0002308585
0.00018221103
0.00014637493
0.00012310716
9.9119035e-05
7.2932558e-05
2.5269678e-05
7.1462672e-05
9.4696886e-05
0.00011543379
0.00013612653
0.00015535409
0.00017106486
0.00018376235
0.00020769792
0.0002684637
0.00037165267
0.00049311473
0.00058663661
0.00058201727
0.00047533866
0.00034978311
0.00025161175
0.00020168948
0.00019688825
0.00020624137
0.0001983534
0.00017465048
0.00014943674
0.00013151812
0.00011827303
9.7448316e-05
5.8005455e-05
5.552538e-05
7.887766e-05
9.6947224e-05
0.00011256404
0.00012654057
0.0001423358
0.00016934284
0.00022530705
0.00032614621
0.00047196432
0.00063826383
0.00076660735
0.00076707916
0.00061945269
0.00044293795
0.00030186036
0.00021340006
0.0001732181
0.00016087211
0.00015247752
0.00013994427
0.00012760751
0.00011847687
0.00010892173
8.7918445e-05
3.434982e-05
3.3784688e-05
6.6858636e-05
8.5261424e-05
0.00010054587
0.00011462604
0.00013316037
0.00016695722
0.00023325301
0.00034556825
0.00050452385
0.00068621997
0.00083102175
0.00084130337
0.00068327805
0.00048823667
0.00032849172
0.00022258567
0.00016583459
0.00014068435
0.00012852298
0.00011894948
0.00011026141
0.00010142156
8.6594361e-05
6.7237e-05
2.3999524e-05
1.8713552e-05
4.9524522e-05
7.5839816e-05
9.2584059e-05
0.00010730823
0.00012560453
0.0001565355
0.0002139252
0.00030936028
0.00044476507
0.00060311206
0.00073456201
0.0007482673
0.00061799251
0.00045123807
0.00031062815
0.00021365971
0.00015791961
0.00012968052
0.00011505041
0.00010547278
9.7259637e-05
8.7507567e-05
6.5553896e-05
3.9036422e-05
2.5535561e-05
6.371919e-05
8.3957617e-05
0.00010031397
0.0001174225
0.00014144813
0.00018260239
0.00024925712
0.00034528098
0.00046053754
0.00055966376
0.00057221005
0.00048511381
0.00036762761
0.00026419041
0.00018984941
0.00014458884
0.00011883398
0.0001033425
9.229069e-05
8.2060937e-05
6.8455504e-05
4.9823304e-05
3.4931741e-05
6.9127308e-05
9.0607566e-05
0.00010940533
0.00012891664
0.00015679737
0.00019533846
0.00025172365
0.00032270025
0.00038542197
0.00039605802
0.00034780761
0.0002771836
0.00021042882
0.00016069822
0.00012780309
0.00010598196
9.0146327e-05
7.7476899e-05
6.5183261e-05
5.4042841e-05
1.983369e-05
3.6935889e-05
7.1478065e-05
9.6927598e-05
0.00011869531
0.00014337596
0.00016127479
0.00018569652
0.000220085
0.00025197193
0.0002601859
0.00023778872
0.00020041971
0.00016302175
0.00013261581
0.00010917541
9.0262274e-05
7.3499857e-05
5.9499835e-05
5.1837396e-05
2.0103835e-05
3.4207207e-05
6.8071351e-05
0.00010195975
0.00013299958
0.00014175644
0.00014748572
0.00015816403
0.00017060386
0.00017538288
0.00016678685
0.00014926377
0.00012882381
0.00010864775
8.9556424e-05
7.2428592e-05
4.8518673e-05
4.0940601e-05
1.7005108e-05
2.5472371e-05
5.919273e-05
0.00010475604
0.00011204344
0.00011357193
0.00011940705
0.00012729186
0.00013190491
0.00012926278
0.0001193851
0.00010414459
8.5461388e-05
6.5410383e-05
5.630373e-05
3.2007448e-05
3.0692775e-05
5.15771e-05
7.2331503e-05
8.89712e-05
0.0001072903
0.00011683305
0.00011763878
0.00010928828
8.9165981e-05
6.5443641e-05
3.4367447e-05
2.1164188e-05
3.419076e-05
4.149241e-05
4.5555045e-05
4.620609e-05
4.0722493e-05
2.9096723e-05
4.0403848e-05
8.1046534e-05
0.00011321939
0.00011847275
0.00011439457
9.5205621e-05
4.5571421e-05
3.432294e-05
3.7068591e-05
7.7812497e-05
9.0272216e-05
0.00010494847
0.00012097883
0.00013350358
0.00013947871
0.00013849832
0.00013188594
0.00012592341
0.00012487446
0.000117519
6.4194216e-05
2.8945889e-05
3.7048996e-05
7.099183e-05
9.161147e-05
0.00010339641
0.00011247312
0.00012336575
0.0001380132
0.00015345556
0.00016482982
0.00016732047
0.00016335043
0.00016026134
0.0001613563
0.00015661499
0.00012264868
8.0717382e-05
4.3447262e-05
3.7616988e-05
8.6534672e-05
0.00010500128
0.00011508795
0.00012190372
0.00012967306
0.00014217467
0.00016359917
0.00019201637
0.00021757327
0.00022347517
0.00020946376
0.00019171436
0.0001800811
0.00016803466
0.0001422918
0.00011698858
8.7788878e-05
4.6690485e-05
3.5628537e-05
8.9248005e-05
0.00011222243
0.00012470722
0.00013228664
0.00013810502
0.00014565223
0.00016183545
0.00019708759
0.00025204751
0.00030609719
0.00032087353
0.00029016664
0.00024423795
0.00020557867
0.00017775565
0.00015303612
0.00013314091
0.00011191796
8.7138177e-05
4.8096952e-05
3.7840973e-05
9.1401316e-05
0.00011904063
0.00013425121
0.00014403101
0.0001516589
0.00015681238
0.00016275885
0.00018122435
0.00023288256
0.0003234556
0.0004166909
0.00044528501
0.00039987689
0.00032383727
0.00025135554
0.00019872575
0.00016438067
0.00014245367
0.00012466105
0.00010628454
8.3288773e-05
4.4567244e-05
8.7088872e-05
0.00012727915
0.00014612445
0.00015846864
0.0001717256
0.00018347719
0.00018737212
0.0001866866
0.00019973447
0.00025912074
0.00038112278
0.00051341059
0.00055680791
0.00050338001
0.00040477192
0.00030446793
0.00022724743
0.00017855518
0.00015079618
0.00013284351
0.00011715003
9.8450628e-05
6.6100474e-05
3.1248419e-05
4.8640665e-05
0.00013739664
0.00016039437
0.00017408349
0.00019287573
0.00021992683
0.00024206006
0.00024330977
0.00022722173
0.00022022267
0.00026384937
0.0003931416
0.00054876787
0.0006026949
0.00055196293
0.00044623612
0.00033420109
0.00024522974
0.00018890239
0.00015807248
0.00013993242
0.00012542735
0.00010909219
8.8291574e-05
6.3266465e-05
0.00012347155
0.00017384827
0.00019184447
0.00020997273
0.00024909912
0.00030214175
0.00034030941
0.0003366357
0.00029616182
0.00025326882
0.00025323259
0.00034165533
0.00048881416
0.00054769651
0.00050883685
0.00041610108
0.00031578286
0.00023754216
0.00018971725
0.00016406696
0.00014830702
0.00013475219
0.00011937097
0.00010035786
7.4362753e-05
2.3723214e-05
2.9881661e-05
0.00013995714
0.00018636803
0.00021390452
0.0002580354
0.00033492385
0.00042371762
0.00048000405
0.0004675005
0.00039683985
0.00030955035
0.00025305114
0.0002645506
0.00034667457
0.00040061073
0.00038398724
0.00032481775
0.00026088672
0.00021576805
0.00019166186
0.00017815325
0.00016537288
0.00015055543
0.00013351399
0.00011424727
9.004064e-05
5.2584312e-05
4.2602156e-05
0.00014359822
0.00018877916
0.00023812738
0.0003245845
0.00044920981
0.00057635539
0.00064849444
0.00062253958
0.00051641418
0.00038362559
0.00027487234
0.00022366197
0.00023035482
0.00025541312
0.00025588567
0.00023540921
0.00021812472
0.00021777198
0.00022315857
0.00021954481
0.00020257867
0.00017828514
0.00015329459
0.00013070509
0.00010908505
8.7641879e-05
7.5749992e-05
0.00014911139
0.00019609604
0.00027369383
0.00040459392
0.00057363685
0.00073243901
0.00081161114
0.00076881582
0.00062778742
0.00045114055
0.00030020452
0.00021594683
0.00017703506
0.00017237671
0.00017765763
0.00019150233
0.0002251802
0.00027499461
0.00030837931
0.00030452168
0.00026930786
0.00022184721
0.00017867908
0.00014695284
0.00012494405
0.0001136554
3.6386434e-05
0.00010845102
0.00015390599
0.00020655458
0.00030827575
0.0004704077
0.00066766332
0.00084249431
0.00091835737
0.00085729845
0.00068859616
0.00047949519
0.00030319892
0.00022522103
0.00018149468
0.00016406394
0.00016048814
0.00019985217
0.00028256929
0.00038434306
0.00043829976
0.000422606
0.00035714894
0.00027583573
0.00020627146
0.00016050785
0.0001333357
0.00012488805
4.5432218e-05
0.00011569283
0.000152322
0.00020791308
0.00031293134
0.00047600074
0.00067054684
0.00084051552
0.00091005472
0.00083548278
0.0006515398
0.0004388044
0.00027599161
0.00021805041
9.0238344e-05
9.7636419e-05
0.00016850508
0.00022614161
0.00034873168
0.00049123626
0.00055552544
0.00052468226
0.00042937918
0.00031732543
0.00022527196
0.00016804216
0.00013548736
0.00011119368
4.3373758e-05
0.00010161682
0.00014710481
0.00019210456
0.00027500414
0.0004014719
0.00055018038
0.00068001041
0.00073025318
0.0006540153
0.00049502127
0.00033512677
0.00023936905
0.00021239931
0.00017414809
0.00018118898
0.00019472605
0.00023840747
0.00036497542
0.00051504948
0.00057730978
0.00054067869
0.00043698846
0.00031746303
0.00022306822
0.00016686547
0.00013568093
0.00012773034
5.0639357e-05
0.00010185726
0.00013465847
0.00016789135
0.00022252289
0.00030338115
0.00039555427
0.00047151079
0.00049358272
0.00043516843
0.00034045277
0.00028033158
0.00027498167
0.0002939777
0.00029306748
0.00026297929
0.00023193621
0.00023870477
0.00031968861
0.00043950049
0.00049287131
0.00046048031
0.0003733548
0.00027572938
0.00020288439
0.00015976385
0.00012858561
0.00011623724
4.5763975e-05
5.7242215e-05
0.00011607331
0.00014369842
0.00017730777
0.00022082979
0.00026777098
0.0003039427
0.00031265602
0.00029280727
0.00028695964
0.00033163407
0.00041064415
0.00047294964
0.00047044212
0.00039733677
0.0003093973
0.00025666215
0.00026759012
0.00032891001
0.00036692107
0.00034524193
0.00028613183
0.00022395521
0.00018096749
0.0001536788
0.00012319663
9.2537537e-05
3.4735723e-05
9.5563162e-05
0.00012249615
0.00014614149
0.00016992148
0.00019266348
0.00021161236
0.00022781695
0.00025752079
0.00033014807
0.00045245795
0.00058931964
0.00068671871
0.00068635827
0.00056971304
0.00042120808
0.0003031065
0.00024856774
0.00024831697
0.00025952135
0.00024694769
0.00021560803
0.00018494539
0.00016533104
0.00015041907
0.00012261936
7.4172012e-05
7.7615048e-05
0.0001048852
0.0001256526
0.00014309106
0.00015874335
0.00017687144
0.00020869243
0.00027569084
0.00039661785
0.00056364334
0.00073695928
0.00085737296
0.00086898688
0.00072672921
0.00053049807
0.00036221148
0.00025732533
0.0002133678
0.00020021975
0.00018921051
0.00017352253
0.00015972357
0.00015065338
0.00014018522
0.00011251516
4.424704e-05
5.2429932e-05
9.0570946e-05
0.00011161398
0.00012886076
0.00014435506
0.00016486756
0.00020410479
0.00028358637
0.00041779519
0.00059729099
0.00078413852
0.00091876613
0.00094285258
0.00079744409
0.00058540592
0.00039654154
0.00026797582
0.00020182633
0.00017412544
0.00016034551
0.00014921838
0.00013939831
0.00012887331
0.00010993874
8.98079e-05
3.2050902e-05
2.5307611e-05
6.6818691e-05
9.9187229e-05
0.00011849705
0.00013508164
0.00015540181
0.00019080733
0.00025923573
0.00037499136
0.00053436589
0.0007089691
0.00084450093
0.00087001182
0.00074030765
0.00055128172
0.00038038437
0.00025951732
0.00019250593
0.00016100862
0.00014497001
0.00013390257
0.00012411981
0.00011161848
8.1664981e-05
5.2676957e-05
3.5034873e-05
8.406745e-05
0.00010700948
0.00012603268
0.00014579153
0.00017323045
0.00022099399
0.00030082914
0.0004176083
0.00055413452
0.00066750176
0.0006906809
0.00059642819
0.00045625081
0.00032648034
0.0002323111
0.0001777764
0.0001491364
0.00013201867
0.00011892754
0.0001062583
8.9312692e-05
6.7297709e-05
4.8479089e-05
8.8373457e-05
0.00011351504
0.00013627261
0.00015997192
0.00019281007
0.00023653187
0.00030267166
0.00038937497
0.00046679837
0.00048613257
0.00043166705
0.00034456035
0.0002598074
0.00019761982
0.0001591516
0.00013514119
0.00011719637
0.00010185252
8.6381884e-05
7.4402949e-05
2.8572298e-05
4.8699827e-05
9.0090691e-05
0.00012051249
0.0001487519
0.00018062156
0.00020104561
0.00022561817
0.0002642703
0.0003036153
0.00031731717
0.00029236971
0.00024676137
0.00020071688
0.00016473724
0.00013859102
0.00011772776
9.7930176e-05
8.1194914e-05
7.3497631e-05
2.793185e-05
4.4410845e-05
8.382461e-05
0.00012841935
0.0001683381
0.00017908728
0.00018277407
0.00019230696
0.00020582354
0.00021231617
0.00020337994
0.00018326779
0.00015983751
0.00013738933
0.00011662575
9.7687435e-05
6.7559083e-05
6.0617885e-05
2.4757243e-05
3.356285e-05
7.887522e-05
0.00012620875
0.0001384723
0.00014045888
0.0001468536
0.00015619128
0.00016212841
0.00015992015
0.00014902596
0.00013157079
0.00011065694
8.8797497e-05
8.2708747e-05
4.87895e-05
4.0113392e-05
6.4115466e-05
9.1174433e-05
0.00011358583
0.00013826608
0.00015088504
0.00015275703
0.00014304131
0.00011619269
8.9478929e-05
4.6320727e-05
2.6908283e-05
4.1719643e-05
5.2503037e-05
5.7912434e-05
5.9466542e-05
5.483678e-05
3.5862989e-05
4.942791e-05
9.8435003e-05
0.00013709841
0.00014174939
0.00013548518
0.00011178822
5.2962575e-05
4.0617526e-05
4.5762238e-05
9.8367247e-05
0.00011299972
0.00012947675
0.00014780639
0.00016137986
0.00016712263
0.00016556684
0.00015807093
0.00015151517
0.00014763717
0.00013070752
7.5757951e-05
3.4938748e-05
4.3065088e-05
8.7002186e-05
0.00011309647
0.00012746399
0.00013815036
0.00015042833
0.00016622893
0.00018280637
0.00019483119
0.00019717668
0.00019381097
0.00019319825
0.00019700758
0.00019039128
0.00014643875
9.3848063e-05
5.0600669e-05
4.3926363e-05
0.00010462322
0.00012643588
0.00013883255
0.00014755486
0.00015686276
0.0001710151
0.00019507308
0.00022788331
0.00025689239
0.00026142285
0.00024446512
0.00022675688
0.00021795367
0.0002056766
0.00017139826
0.00013925547
0.00010469671
5.6546723e-05
4.0982584e-05
0.00010592896
0.00013310097
0.00014788475
0.000156976
0.00016419557
0.00017352437
0.0001929194
0.00023541681
0.00030245422
0.00036551207
0.00037771975
0.00033800329
0.00028341136
0.00024131672
0.00021190421
0.00018280172
0.0001591857
0.00013406662
0.00010549066
5.9511373e-05
4.2149964e-05
0.00010688662
0.00014003961
0.00015769181
0.00016843768
0.00017686298
0.00018313921
0.00019128297
0.00021523339
0.0002805091
0.00039217413
0.00049823374
0.00052205777
0.00046630265
0.0003761895
0.00029124327
0.00023133601
0.00019304491
0.00016899176
0.00014913441
0.00012847792
0.00010266362
5.6860975e-05
0.00010062041
0.00014972982
0.00017207975
0.00018450102
0.0001978344
0.00021066332
0.00021551939
0.00021646071
0.00023607506
0.00031392619
0.00046361316
0.00060642149
0.00063949646
0.00057937098
0.00046941525
0.00035369673
0.00026360956
0.00020787325
0.00017742808
0.00015832706
0.00014144596
0.00012080499
8.2974943e-05
3.9129402e-05
5.6319201e-05
0.00016256409
0.00019156724
0.00020495586
0.00022176347
0.00025041493
0.00027577048
0.00027784523
0.00026056535
0.00025743634
0.00031928044
0.00048022795
0.00064321181
0.00067975519
0.0006255065
0.00051416714
0.00038900236
0.00028563935
0.00021998522
0.00018539367
0.00016623508
0.00015119317
0.00013379957
0.00011088116
8.305247e-05
0.00013598291
0.00020916972
0.00023219154
0.0002456105
0.00028342321
0.00034244639
0.00038607612
0.00038298178
0.0003377277
0.00029149502
0.0003010205
0.00042040313
0.00058568002
0.0006321836
0.00058573835
0.00048439349
0.00036970098
0.0002776455
0.00022137498
0.0001923444
0.00017562608
0.00016171161
0.00014570833
0.0001249981
9.5578747e-05
3.2627971e-05
3.6808224e-05
0.00016346042
0.00022534989
0.00025487372
0.00029584743
0.00037947751
0.00047913792
0.00053868478
0.00052599328
0.00045056799
0.00035318431
0.00029457302
0.00032246503
0.00042776473
0.0004848374
0.00045839802
0.00038528437
0.00030739867
0.00025276
0.00022391021
0.00020842415
0.00019445303
0.00017864212
0.00016073314
0.00014003722
0.00011317193
6.9144789e-05
4.9896401e-05
0.00017092821
0.00022367327
0.00027482627
0.00036839066
0.00051023128
0.00064672046
0.00071249136
0.00068588446
0.00058105871
0.00043733651
0.00031511356
0.00026391394
0.00028193074
0.00031229289
0.00030852597
0.00028046517
0.0002578497
0.00025571458
0.00026095996
0.00025763293
0.00023804008
0.00020978215
0.00018171563
0.00015715427
0.00013366335
0.00010919397
8.698813e-05
0.00017620086
0.00022704021
0.00031148769
0.00046210258
0.00065193431
0.00081045882
0.00086861142
0.00082679817
0.00069917098