/*--------------------------------*- C++ -*----------------------------------*\
| =========                 |                                                 |
| \\      /  F ield         | OpenFOAM: The Open Source CFD Toolbox           |
|  \\    /   O peration     | Version:  2406                                  |
|   \\  /    A nd           | Website:  www.openfoam.com                      |
|    \\/     M anipulation  |                                                 |
\*---------------------------------------------------------------------------*/
FoamFile
{
    version     2.0;
    format      ascii;
    arch        "LSB;label=32;scalar=64";
    class       volScalarField;
    location    "150";
    object      nut;
}
// * * * * * * * * * * * * * * * * * * * * * * * * * * * * * * * * * * * * * //

dimensions      [0 2 -1 0 0 0 0];

internalField   nonuniform List<scalar> 
150387
(
5.4378636e-06
8.6141235e-06
9.7057176e-06
1.0496408e-05
1.058308e-05
9.1655416e-06
2.9055736e-06
1.0706446e-06
7.6343985e-07
3.606357e-06
5.8416151e-06
8.4806503e-06
1.0048895e-05
1.1110548e-05
1.2289914e-05
1.3202992e-05
1.4234481e-05
1.5178969e-05
1.5308432e-05
1.4016723e-05
5.532373e-06
3.2150085e-06
5.8768746e-06
7.5501779e-06
8.2508059e-06
9.3085997e-06
1.0612415e-05
1.1993256e-05
1.3701354e-05
1.4908831e-05
1.5946262e-05
1.7854371e-05
1.9117759e-05
1.9918437e-05
1.6102102e-05
9.998675e-06
1.4736464e-06
8.6330704e-07
5.1272701e-06
8.3936963e-06
8.8064454e-06
8.940138e-06
9.2964358e-06
1.0195168e-05
1.1810203e-05
1.4239801e-05
1.7020226e-05
1.8327704e-05
1.8168954e-05
1.8255928e-05
1.9240294e-05
1.997187e-05
1.8016429e-05
1.5509682e-05
1.133303e-05
2.6600359e-06
8.211192e-07
5.9368091e-06
1.0285303e-05
1.0529796e-05
1.0377553e-05
1.0339875e-05
1.0528784e-05
1.1530223e-05
1.4198687e-05
1.857189e-05
2.3300411e-05
2.5044593e-05
2.403294e-05
2.1471401e-05
1.9286601e-05
1.8793827e-05
1.7507095e-05
1.6213985e-05
1.4206304e-05
1.0711128e-05
3.5956001e-06
5.9906906e-06
1.2010103e-05
1.2468043e-05
1.1962354e-05
1.1812564e-05
1.1715794e-05
1.1732667e-05
1.2850276e-05
1.6797639e-05
2.3560065e-05
2.9810828e-05
3.2574437e-05
3.1041626e-05
2.7179812e-05
2.2647881e-05
1.9051056e-05
1.6701871e-05
1.5272825e-05
1.3999895e-05
1.2220616e-05
9.2475598e-06
2.2069933e-06
4.7435201e-06
1.2923579e-05
1.468493e-05
1.3919483e-05
1.367287e-05
1.3980693e-05
1.3956486e-05
1.345931e-05
1.3957148e-05
1.868699e-05
2.7411578e-05
3.6056117e-05
4.0241753e-05
3.8270999e-05
3.2868837e-05
2.6838215e-05
2.1363555e-05
1.7194543e-05
1.4793726e-05
1.3299762e-05
1.1932963e-05
1.0139557e-05
6.881037e-06
8.769578e-07
7.731179e-07
1.2797333e-05
1.6653419e-05
1.618639e-05
1.5589665e-05
1.6464338e-05
1.7780921e-05
1.7804846e-05
1.6384376e-05
1.5176947e-05
1.8558546e-05
2.8631693e-05
3.9500754e-05
4.4985095e-05
4.2918924e-05
3.6620068e-05
2.9424604e-05
2.3130164e-05
1.7968939e-05
1.4790593e-05
1.2970519e-05
1.1649253e-05
1.0231059e-05
8.5567975e-06
4.9409275e-06
1.0660882e-05
1.8905748e-05
1.9290099e-05
1.7971255e-05
1.8648567e-05
2.1485659e-05
2.4015961e-05
2.397064e-05
2.128893e-05
1.7655806e-05
1.6938044e-05
2.4758875e-05
3.6970114e-05
4.2807882e-05
4.1352779e-05
3.5523896e-05
2.8628811e-05
2.2319993e-05
1.7403939e-05
1.4483936e-05
1.2754809e-05
1.1468224e-05
1.0317186e-05
9.1279376e-06
7.1641633e-06
1.2320265e-06
1.5658333e-05
2.0008509e-05
1.9073745e-05
1.9495857e-05
2.339368e-05
2.8156014e-05
3.1573921e-05
3.1453471e-05
2.7960527e-05
2.2053044e-05
1.719562e-05
1.7351711e-05
2.683945e-05
3.3111332e-05
3.3083006e-05
2.9275171e-05
2.3771716e-05
1.8902857e-05
1.5909526e-05
1.4365279e-05
1.3106329e-05
1.1801023e-05
1.0546173e-05
9.4694763e-06
7.9070893e-06
4.3822733e-06
1.4353956e-06
1.6505752e-05
1.8974184e-05
1.8979777e-05
2.3102832e-05
2.9354443e-05
3.6013083e-05
4.1018778e-05
4.060874e-05
3.5317728e-05
2.7715973e-05
1.9779638e-05
1.4813907e-05
1.5768152e-05
2.053608e-05
2.1899315e-05
2.0134239e-05
1.7657609e-05
1.6611949e-05
1.706442e-05
1.6956996e-05
1.568229e-05
1.3743132e-05
1.1638725e-05
9.9887957e-06
8.4170309e-06
6.8618721e-06
8.7708445e-06
1.5472394e-05
1.7196976e-05
2.0451425e-05
2.7475665e-05
3.5746649e-05
4.4697807e-05
5.1129963e-05
5.0198747e-05
4.2837958e-05
3.2669874e-05
2.2617947e-05
1.5025436e-05
1.1011289e-05
1.0793439e-05
1.2687816e-05
1.332558e-05
1.5483641e-05
1.9785611e-05
2.2966429e-05
2.3167751e-05
2.095324e-05
1.7598553e-05
1.4188946e-05
1.1500443e-05
9.6219515e-06
8.9965943e-06
1.3288501e-06
1.0854035e-05
1.4294094e-05
1.6751755e-05
2.2331486e-05
3.0769498e-05
4.093822e-05
5.1607583e-05
5.8931377e-05
5.7097907e-05
4.7824512e-05
3.5555307e-05
2.3978225e-05
1.5818832e-05
1.0193448e-05
8.7743607e-06
9.3228774e-06
1.175931e-05
1.8737445e-05
2.7481831e-05
3.1196282e-05
3.0742613e-05
2.7389178e-05
2.2578283e-05
1.7329755e-05
1.3400741e-05
1.0974968e-05
1.0140046e-05
2.016399e-06
9.3606337e-06
1.3478368e-05
1.6595858e-05
2.276229e-05
3.1329108e-05
4.1616725e-05
5.2272045e-05
5.9155357e-05
5.6486533e-05
4.6533123e-05
3.3819882e-05
2.1384449e-05
1.1934496e-05
1.6041136e-06
2.1640046e-06
9.0980737e-06
1.3313037e-05
2.4230773e-05
3.5150225e-05
3.9917777e-05
3.8585245e-05
3.3347459e-05
2.6776398e-05
2.0256086e-05
1.5130279e-05
1.2193373e-05
9.83276e-06
2.3800813e-06
9.2646933e-06
1.239281e-05
1.5299918e-05
2.0531566e-05
2.8001128e-05
3.6168858e-05
4.4273938e-05
4.9031661e-05
4.6048449e-05
3.7435497e-05
2.5669293e-05
1.5675824e-05
1.1856632e-05
6.8695496e-06
9.4705009e-06
1.1838372e-05
1.4322077e-05
2.6443757e-05
3.8575564e-05
4.3726517e-05
4.1902949e-05
3.5745206e-05
2.8246098e-05
2.1208485e-05
1.5975174e-05
1.3204351e-05
1.1544816e-05
2.8002553e-06
8.121965e-06
1.1044842e-05
1.3286146e-05
1.7007756e-05
2.2716101e-05
2.8663457e-05
3.3769912e-05
3.6228075e-05
3.3353806e-05
2.5771425e-05
1.7604243e-05
1.4634109e-05
1.6845595e-05
1.741695e-05
1.6373454e-05
1.4450609e-05
1.4494197e-05
2.3152852e-05
3.5080241e-05
4.0176983e-05
3.8544502e-05
3.2984946e-05
2.6403708e-05
2.0138591e-05
1.6299651e-05
1.4449858e-05
1.2132767e-05
2.0365462e-06
2.9065178e-06
9.3321502e-06
1.1227563e-05
1.364905e-05
1.7297538e-05
2.1103401e-05
2.4235689e-05
2.5008223e-05
2.1793208e-05
1.7769384e-05
1.8431473e-05
2.3775689e-05
2.897592e-05
2.9550288e-05
2.6202754e-05
2.086516e-05
1.7009897e-05
1.864482e-05
2.8080188e-05
3.2617558e-05
3.1827902e-05
2.7896572e-05
2.2723034e-05
1.8715459e-05
1.7165465e-05
1.5680463e-05
1.0401199e-05
1.4652762e-06
9.6697484e-07
8.0237147e-06
9.8034953e-06
1.1227071e-05
1.3335223e-05
1.5419189e-05
1.7071111e-05
1.7475959e-05
1.7250908e-05
2.0248127e-05
2.7823836e-05
3.5758703e-05
4.1872564e-05
4.2286703e-05
3.6845282e-05
2.9309044e-05
2.1802412e-05
1.7899928e-05
2.0486384e-05
2.4689774e-05
2.4792431e-05
2.2270187e-05
1.9557531e-05
1.8318728e-05
1.8141142e-05
1.6560846e-05
8.0825267e-06
5.9739292e-06
9.1336855e-06
1.0253799e-05
1.1520285e-05
1.2754809e-05
1.4071247e-05
1.5687356e-05
1.953125e-05
2.6935844e-05
3.5971626e-05
4.6248196e-05
5.4479423e-05
5.5025296e-05
4.7338729e-05
3.6708107e-05
2.7359465e-05
1.9984986e-05
1.7235381e-05
1.8585377e-05
1.9308424e-05
1.8698649e-05
1.8476197e-05
1.8752437e-05
1.8699841e-05
1.7037503e-05
4.3792004e-06
3.2491002e-06
8.4910054e-06
9.9081282e-06
1.125974e-05
1.239923e-05
1.3869718e-05
1.6391641e-05
2.1661094e-05
2.9375179e-05
3.9219422e-05
5.0491074e-05
5.9705978e-05
6.0398258e-05
5.2341272e-05
4.0623209e-05
3.0053048e-05
2.1743276e-05
1.6655583e-05
1.5484707e-05
1.6016747e-05
1.6490426e-05
1.7155621e-05
1.7458367e-05
1.6613126e-05
1.1208063e-05
1.3156273e-06
6.0386636e-06
9.3826123e-06
1.1160912e-05
1.2463297e-05
1.3892906e-05
1.6177337e-05
2.0824653e-05
2.7837411e-05
3.6572749e-05
4.6690933e-05
5.5157066e-05
5.6386989e-05
4.9202837e-05
3.8764044e-05
2.9143858e-05
2.1338384e-05
1.60675e-05
1.401138e-05
1.4229489e-05
1.5338978e-05
1.6337918e-05
1.6468228e-05
1.5169937e-05
5.1428152e-06
1.5240638e-06
8.3412212e-06
1.1186151e-05
1.28439e-05
1.4221257e-05
1.572163e-05
1.8844705e-05
2.4047764e-05
3.1007749e-05
3.8855285e-05
4.5559427e-05
4.6682377e-05
4.149318e-05
3.3524357e-05
2.583292e-05
1.9168078e-05
1.4720058e-05
1.271109e-05
1.2858716e-05
1.3975336e-05
1.4769196e-05
1.4167742e-05
8.7338977e-06
5.286794e-07
3.1102008e-06
1.0135161e-05
1.335231e-05
1.5227884e-05
1.6287352e-05
1.8105752e-05
2.0158015e-05
2.4790969e-05
3.0318405e-05
3.4966116e-05
3.5917735e-05
3.2609145e-05
2.7233384e-05
2.1324172e-05
1.627229e-05
1.2982593e-05
1.1407354e-05
1.1581977e-05
1.2427131e-05
1.2606546e-05
9.7972989e-06
1.5847518e-06
3.6521024e-06
1.1387334e-05
1.5306304e-05
1.7371759e-05
1.9619149e-05
1.9143408e-05
1.979152e-05
2.2548003e-05
2.5670501e-05
2.649879e-05
2.4452314e-05
2.0690822e-05
1.6693454e-05
1.3363069e-05
1.1054186e-05
9.9421976e-06
1.0029634e-05
1.0407926e-05
8.8797272e-06
2.3837225e-06
2.8484278e-06
1.147878e-05
1.6213018e-05
2.03779e-05
2.0713729e-05
1.9136607e-05
1.8103392e-05
1.870088e-05
1.8997852e-05
1.7819132e-05
1.5551199e-05
1.3108177e-05
1.0939686e-05
9.1733525e-06
8.2691171e-06
7.8939307e-06
5.9055135e-06
1.3172928e-06
1.1123472e-06
8.035093e-06
1.8260291e-05
1.8987575e-05
1.7988023e-05
1.6443378e-05
1.5383492e-05
1.4776992e-05
1.3805747e-05
1.2273805e-05
1.0508904e-05
8.7435528e-06
7.1744528e-06
5.4349465e-06
2.8518475e-06
5.2890242e-07
2.428366e-06
7.4597454e-06
1.1258521e-05
1.2956034e-05
1.3772947e-05
1.3449293e-05
1.2570072e-05
1.1162314e-05
8.5820002e-06
5.9629681e-06
2.5608554e-06
1.2377784e-06
1.4593335e-06
2.5686107e-06
3.2653281e-06
3.070536e-06
1.2803064e-06
1.480433e-06
1.5677939e-06
4.5564785e-06
1.73339e-05
2.5525618e-05
2.756336e-05
2.7414637e-05
2.2976225e-05
6.1578676e-06
3.1234263e-06
3.8787783e-06
2.285845e-05
2.8000897e-05
3.2151431e-05
3.6972129e-05
4.1388225e-05
4.4874821e-05
4.7040924e-05
4.7866444e-05
4.7191867e-05
4.3948582e-05
3.5911574e-05
1.2506888e-05
1.5281728e-06
2.0822683e-06
1.9879444e-05
2.9251709e-05
3.1780149e-05
3.3496389e-05
3.650357e-05
4.1346698e-05
4.6700955e-05
5.1088743e-05
5.3394712e-05
5.4783304e-05
5.6739646e-05
5.7879546e-05
5.6224276e-05
4.533498e-05
2.4023715e-05
4.882587e-06
2.6945131e-06
2.8611001e-05
3.6596039e-05
3.6911814e-05
3.6645993e-05
3.7882864e-05
4.1263039e-05
4.7387221e-05
5.4217032e-05
5.9707354e-05
6.1693078e-05
6.0811431e-05
5.9754778e-05
6.0083229e-05
6.0198016e-05
5.5053095e-05
4.7138887e-05
3.2248019e-05
7.9950111e-06
2.6236592e-06
3.1710234e-05
4.2214764e-05
4.2703066e-05
4.2047862e-05
4.175667e-05
4.2690201e-05
4.6701928e-05
5.4812107e-05
6.4025641e-05
7.1736654e-05
7.4326948e-05
7.1493565e-05
6.6224622e-05
6.1583543e-05
5.9055854e-05
5.5681441e-05
5.2290688e-05
4.6208396e-05
3.3147289e-05
8.4559877e-06
2.1614681e-06
3.0159026e-05
4.6585404e-05
4.8358074e-05
4.7565345e-05
4.7504301e-05
4.7314758e-05
4.7612602e-05
5.1697916e-05
6.175374e-05
7.3841384e-05
8.4556131e-05
8.846598e-05
8.432482e-05
7.6085925e-05
6.729568e-05
6.0235613e-05
5.4933987e-05
5.1187991e-05
4.7107282e-05
4.1343645e-05
2.9523509e-05
6.6302877e-06
2.2792709e-05
4.7516583e-05
5.3216761e-05
5.2621649e-05
5.2949522e-05
5.4092488e-05
5.3942058e-05
5.2998501e-05
5.5680792e-05
6.6501757e-05
8.1199729e-05
9.5250749e-05
0.00010078629
9.5866206e-05
8.5487412e-05
7.4026463e-05
6.3948638e-05
5.6128068e-05
5.0544313e-05
4.5868449e-05
4.1239911e-05
3.5380114e-05
2.0542329e-05
2.3731772e-06
4.5119148e-06
4.7646092e-05
5.7095125e-05
5.7212115e-05
5.7399584e-05
6.019887e-05
6.2874267e-05
6.2546714e-05
5.9574213e-05
5.868986e-05
6.7050897e-05
8.3297742e-05
9.9637594e-05
0.00010651935
0.00010167658
9.0402446e-05
7.7722925e-05
6.6439194e-05
5.7492933e-05
5.0796066e-05
4.539263e-05
4.0648221e-05
3.5694046e-05
2.9609414e-05
1.64817e-05
3.5564322e-05
5.8218753e-05
6.1831032e-05
6.1186742e-05
6.454661e-05
7.0611275e-05
7.4897537e-05
7.4193118e-05
6.865718e-05
6.2679721e-05
6.3921504e-05
7.7737293e-05
9.3991745e-05
0.00010113005
9.7443929e-05
8.7310242e-05
7.5569631e-05
6.5118587e-05
5.6989982e-05
5.0818918e-05
4.5649753e-05
4.0943677e-05
3.6034907e-05
3.0924654e-05
2.290463e-05
2.5385645e-06
1.6425773e-06
4.6171334e-05
6.0398934e-05
6.2435508e-05
6.5998713e-05
7.438451e-05
8.3864177e-05
8.9856211e-05
8.8501819e-05
8.0346641e-05
6.9464115e-05
6.2079576e-05
6.4597483e-05
7.7412279e-05
8.4369603e-05
8.2967245e-05
7.6066043e-05
6.7703549e-05
6.0819733e-05
5.6471585e-05
5.2986247e-05
4.887603e-05
4.4083516e-05
3.8706161e-05
3.3315346e-05
2.6493975e-05
1.1339143e-05
4.6483559e-06
4.9669634e-05
5.9351352e-05
6.3906007e-05
7.3289374e-05
8.6157778e-05
9.8918821e-05
0.00010659496
0.00010429701
9.3047871e-05
7.8093806e-05
6.4080921e-05
5.5562475e-05
5.6733875e-05
6.3157272e-05
6.436799e-05
6.182022e-05
5.9646946e-05
6.054655e-05
6.1683512e-05
6.0234562e-05
5.6185858e-05
5.047506e-05
4.3999538e-05
3.7924573e-05
3.1590989e-05
2.0577829e-05
1.6459177e-05
5.0820112e-05
5.8560755e-05
6.7368712e-05
8.1322099e-05
9.783642e-05
0.00011328903
0.00012209444
0.00011855982
0.00010413476
8.5392876e-05
6.7534441e-05
5.2467458e-05
4.1243621e-05
4.1483836e-05
4.4883861e-05
5.0348554e-05
5.9841567e-05
6.877059e-05
7.2838428e-05
7.1569675e-05
6.6206074e-05
5.8671983e-05
5.0524232e-05
4.3338e-05
3.7121098e-05
2.8743316e-05
1.6775619e-06
2.7054425e-05
5.0595546e-05
5.8736707e-05
7.0532326e-05
8.7083342e-05
0.00010578577
0.00012262298
0.00013154321
0.00012649946
0.00010957273
8.8058839e-05
6.8711244e-05
4.8934806e-05
3.1661304e-05
2.9718333e-05
3.7129904e-05
5.1136325e-05
6.8729219e-05
8.2151634e-05
8.7413878e-05
8.4955907e-05
7.7173337e-05
6.7010144e-05
5.6724621e-05
4.8193077e-05
4.1433979e-05
3.4137551e-05
3.8401687e-06
3.7132389e-05
4.9309919e-05
5.8033423e-05
7.0195411e-05
8.6469789e-05
0.00010449845
0.00012043744
0.00012826644
0.00012209306
0.00010459888
8.2976482e-05
6.3145382e-05
4.2358703e-05
2.20321e-06
6.784186e-06
3.8993919e-05
5.7033296e-05
7.8229056e-05
9.4391206e-05
0.0001003769
9.6350021e-05
8.5864626e-05
7.3140288e-05
6.1082437e-05
5.1677315e-05
4.4164416e-05
3.2708319e-05
4.1994754e-06
2.6149698e-05
4.6585108e-05
5.4405722e-05
6.4913445e-05
7.8405665e-05
9.2677355e-05
0.00010482878
0.00011008887
0.00010389107
8.8752785e-05
7.0810496e-05
5.6910928e-05
4.5243479e-05
1.8799908e-05
2.8547051e-05
4.7439727e-05
5.9724885e-05
8.120076e-05
9.7941814e-05
0.00010400965
9.9294435e-05
8.7815282e-05
7.4253271e-05
6.2055692e-05
5.3401642e-05
4.6877223e-05
3.6059171e-05
4.4105096e-06
2.2600818e-05
4.1621993e-05
4.8954967e-05
5.7426689e-05
6.7634258e-05
7.7699005e-05
8.5603685e-05
8.8319797e-05
8.3207361e-05
7.267317e-05
6.4007161e-05
6.3705919e-05
6.6927424e-05
6.6720623e-05
6.2032942e-05
5.6359176e-05
6.0105962e-05
7.6513814e-05
9.1029293e-05
9.6219633e-05
9.2164805e-05
8.2166881e-05
7.0357137e-05
6.0403532e-05
5.4319172e-05
4.7900655e-05
3.464397e-05
3.1913798e-06
6.7654454e-06
3.5281113e-05
4.2619798e-05
4.9617292e-05
5.720311e-05
6.407998e-05
6.9148139e-05
7.0817761e-05
6.8306352e-05
6.6740568e-05
7.2168809e-05
8.112042e-05
8.7625765e-05
8.6594366e-05
7.8200302e-05
6.793226e-05
6.2784208e-05
6.7972816e-05
7.9274999e-05
8.325607e-05
8.0298087e-05
7.2796964e-05
6.430563e-05
5.8566117e-05
5.5569748e-05
4.7569401e-05
2.8880489e-05
3.284869e-06
2.9186477e-05
3.6577143e-05
4.2667951e-05
4.8766201e-05
5.4006578e-05
5.8055076e-05
6.0995992e-05
6.4615321e-05
7.346589e-05
8.6914306e-05
0.00010078545
0.0001099074
0.00010828299
9.6193482e-05
8.104182e-05
6.8581867e-05
6.4365824e-05
6.7414059e-05
7.0355469e-05
6.8418917e-05
6.3487946e-05
5.9213732e-05
5.7952619e-05
5.6075157e-05
4.4989825e-05
2.0577021e-05
2.4101467e-05
3.2221698e-05
3.7708553e-05
4.3033647e-05
4.7851279e-05
5.2674834e-05
5.8602636e-05
6.797745e-05
8.1860303e-05
9.9033129e-05
0.00011605102
0.00012731546
0.00012579956
0.00011103555
9.2094932e-05
7.5346533e-05
6.439379e-05
6.0700007e-05
6.0419532e-05
5.9117949e-05
5.6831483e-05
5.6323023e-05
5.7098715e-05
5.3411104e-05
3.6701619e-05
5.321373e-06
1.0671018e-05
2.9866216e-05
3.5725285e-05
4.0890688e-05
4.5775539e-05
5.1342674e-05
5.8591427e-05
6.9350891e-05
8.4257452e-05
0.00010227179
0.00012017204
0.00013239596
0.00013156019
0.00011647349
9.6549558e-05
7.8401453e-05
6.4974743e-05
5.7348723e-05
5.4003707e-05
5.2370361e-05
5.172361e-05
5.268418e-05
5.2479139e-05
4.4240809e-05
2.9312259e-05
1.5884345e-06
1.4499309e-06
2.070235e-05
3.4792869e-05
4.0602358e-05
4.5427416e-05
5.0482052e-05
5.6863115e-05
6.6418989e-05
7.9624173e-05
9.5629671e-05
0.00011182887
0.00012325457
0.0001229602
0.00011005293
9.2472996e-05
7.6021015e-05
6.3134065e-05
5.4574733e-05
4.9691553e-05
4.7693947e-05
4.8017594e-05
4.957526e-05
4.7108733e-05
2.8076747e-05
1.0520355e-05
4.1747943e-06
2.9422401e-05
4.0506792e-05
4.6206707e-05
5.0571921e-05
5.4996283e-05
6.1724047e-05
7.1371447e-05
8.3731698e-05
9.6663839e-05
0.00010606426
0.0001061342
9.6532166e-05
8.2944736e-05
6.9679555e-05
5.8688829e-05
5.0636995e-05
4.5418866e-05
4.3120932e-05
4.3291352e-05
4.366767e-05
3.6402586e-05
2.0089984e-05
7.9407953e-06
3.3246001e-05
4.5850878e-05
5.1830903e-05
5.5435677e-05
5.957843e-05
6.4023778e-05
7.1503663e-05
8.0352878e-05
8.7067637e-05
8.7468199e-05
8.1132317e-05
7.1599811e-05
6.1567176e-05
5.2811416e-05
4.5738179e-05
4.0707711e-05
3.8142107e-05
3.7516995e-05
3.4436207e-05
2.5157004e-05
2.039013e-06
8.4184597e-06
3.3071466e-05
4.7685959e-05
5.5433289e-05
6.0946173e-05
6.1529041e-05
6.3049951e-05
6.6817602e-05
7.0512972e-05
7.0991717e-05
6.7011542e-05
6.0463055e-05
5.3159105e-05
4.6109573e-05
3.9919346e-05
3.5185048e-05
3.202103e-05
2.914577e-05
2.3477741e-05
2.1858567e-06
6.7655749e-06
2.5017136e-05
4.646384e-05
5.7793293e-05
6.0105747e-05
5.9550774e-05
5.8970595e-05
5.951879e-05
5.929015e-05
5.652756e-05
5.1733526e-05
4.5743808e-05
3.9419104e-05
3.3612761e-05
2.9145593e-05
1.8994339e-05
1.5879709e-05
1.8597379e-06
2.4925562e-06
1.9084431e-05
3.8122896e-05
4.6769969e-05
5.0320402e-05
5.1406234e-05
5.1742136e-05
5.1056067e-05
4.8433841e-05
4.3628281e-05
3.7547405e-05
3.1005739e-05
2.396651e-05
2.1335192e-05
7.6783667e-06
3.574215e-06
1.4033376e-05
2.7162553e-05
3.3983802e-05
3.9509006e-05
4.0504652e-05
3.9183106e-05
3.5377074e-05
2.658124e-05
1.7888062e-05
5.2075276e-06
1.4659935e-06
1.8839404e-06
4.2933497e-06
4.8116446e-06
4.7801694e-06
3.4154338e-06
1.823411e-06
4.7661359e-06
2.0778023e-05
3.4090121e-05
3.6099376e-05
3.5559444e-05
2.953819e-05
6.2522598e-06
3.6056091e-06
4.7243529e-06
3.3276506e-05
4.1392806e-05
4.6869532e-05
5.3725713e-05
5.9438577e-05
6.3120566e-05
6.4579807e-05
6.3005584e-05
5.758068e-05
4.9965421e-05
3.7884123e-05
1.5185025e-05
1.97467e-06
2.2460745e-06
2.6343964e-05
4.3120668e-05
4.8058569e-05
5.0639418e-05
5.4822529e-05
6.0704531e-05
6.6235119e-05
7.0331229e-05
7.2592926e-05
7.3825851e-05
7.3858257e-05
7.1606664e-05
6.6063675e-05
5.4401993e-05
2.7192268e-05
5.3198423e-06
2.9149244e-06
3.9511495e-05
5.3786758e-05
5.5499368e-05
5.5664281e-05
5.7408617e-05
6.1383812e-05
6.7063682e-05
7.242492e-05
7.6745586e-05
7.8749308e-05
7.8993858e-05
7.9120287e-05
7.9055303e-05
7.6850066e-05
7.0144049e-05
5.9194241e-05
4.0186555e-05
1.0028187e-05
2.8432748e-06
4.1780345e-05
5.9704873e-05
6.2481402e-05
6.2354121e-05
6.2508258e-05
6.3921446e-05
6.7769354e-05
7.3885832e-05
8.0777768e-05
8.7416016e-05
8.9901882e-05
8.7615258e-05
8.3603679e-05
8.0607349e-05
7.8515964e-05
7.4780651e-05
7.0118535e-05
6.1605799e-05
4.3575431e-05
1.0205402e-05
2.2817383e-06
3.719321e-05
6.2076545e-05
6.7949706e-05
6.7979758e-05
6.8011977e-05
6.8378313e-05
6.962515e-05
7.3339393e-05
8.057538e-05
9.0381839e-05
0.0001004675
0.00010412123
9.9995209e-05
9.2021412e-05
8.417356e-05
7.8689599e-05
7.4731765e-05
7.1209541e-05
6.6172622e-05
5.8129612e-05
4.0749477e-05
9.0157029e-06
2.5829224e-05
5.9506284e-05
7.1283565e-05
7.2453864e-05
7.2203948e-05
7.2702574e-05
7.3178256e-05
7.4259984e-05
7.8110698e-05
8.6063215e-05
9.8253372e-05
0.00011138271
0.0001163174
0.00011140539
0.00010106001
8.9795727e-05
8.0890687e-05
7.5186507e-05
7.095586e-05
6.6072534e-05
5.9957796e-05
5.1225909e-05
2.7346304e-05
2.7504163e-06
5.4363577e-06
5.6433673e-05
7.2405456e-05
7.6251968e-05
7.6045793e-05
7.7183672e-05
7.8960668e-05
7.9152908e-05
7.8557204e-05
8.1128288e-05
8.8591189e-05
0.0001013452
0.0001157921
0.00012160994
0.00011684904
0.00010577621
9.3230584e-05
8.2927255e-05
7.6391521e-05
7.1579595e-05
6.6209436e-05
6.0050602e-05
5.2873307e-05
4.3233302e-05
2.3687144e-05
3.7005369e-05
6.8322949e-05
7.9212373e-05
8.0066844e-05
8.1447119e-05
8.6058003e-05
8.99427e-05
8.9549379e-05
8.5458211e-05
8.3123574e-05
8.7635885e-05
9.8141767e-05
0.00011095075
0.00011692287
0.00011302351
0.00010305945
9.1765548e-05
8.2979272e-05
7.7424776e-05
7.2660043e-05
6.7206227e-05
6.1126668e-05
5.4225563e-05
4.6334435e-05
3.3661313e-05
3.1974788e-06
1.8736026e-06
5.1745096e-05
7.4711609e-05
8.1532049e-05
8.3634904e-05
9.022298e-05
9.9310779e-05
0.00010514655
0.00010401505
9.6404605e-05
8.7330685e-05
8.4530561e-05
8.9281468e-05
9.7136807e-05
0.00010208575
0.00010008971
9.3523712e-05
8.6759933e-05
8.2228946e-05
7.8873222e-05
7.5043911e-05
7.0218129e-05
6.4642312e-05
5.8039404e-05
5.0457802e-05
3.9685016e-05
1.5177325e-05
4.9649741e-06
6.0163729e-05
7.6850651e-05
8.2148967e-05
8.9380351e-05
0.00010195927
0.00011475704
0.00012193226
0.0001198216
0.00010916397
9.4622579e-05
8.3186431e-05
7.8813946e-05
7.9420507e-05
8.3264867e-05
8.3957594e-05
8.2790119e-05
8.2715732e-05
8.3186601e-05
8.2035456e-05
7.9296201e-05
7.5040268e-05
6.97235e-05
6.351478e-05
5.6521502e-05
4.6964501e-05
2.8202494e-05
1.8464708e-05
6.6212212e-05
7.6796085e-05
8.3750652e-05
9.6815789e-05
0.00011383372
0.00012893303
0.00013651234
0.00013329706
0.00012012145
0.00010161949
8.4831647e-05
7.1508834e-05
5.9372068e-05
6.0865794e-05
6.567735e-05
7.3077315e-05
8.1858717e-05
8.7469155e-05
8.957782e-05
8.7719333e-05
8.2448237e-05
7.5683753e-05
6.9021741e-05
6.2617237e-05
5.4713042e-05
3.9984279e-05
1.9919643e-06
3.4639667e-05
6.8221273e-05
7.6102517e-05
8.5756609e-05
0.00010251476
0.00012174359
0.00013759608
0.00014480936
0.0001402933
0.00012532464
0.00010426206
8.5710993e-05
6.7755845e-05
4.2944906e-05
4.3081053e-05
5.5297308e-05
7.2420181e-05
8.7926047e-05
9.8805313e-05
0.00010346969
0.00010085335
9.2828983e-05
8.2727298e-05
7.3961318e-05
6.7434707e-05
6.0281074e-05
4.9535816e-05
4.4608487e-06
4.7853642e-05
6.719298e-05
7.4773347e-05
8.5010823e-05
0.00010188551
0.00012065782
0.00013589123
0.00014248101
0.00013691834
0.00012095157
9.978954e-05
8.1750814e-05
5.8485462e-05
2.4275224e-06
9.6750324e-06
5.6678458e-05
7.8287129e-05
9.6418582e-05
0.00011058844
0.00011606912
0.00011214156
0.00010149179
8.8501479e-05
7.7678266e-05
7.0726689e-05
6.2704361e-05
4.3817922e-05
4.6326648e-06
3.4952529e-05
6.4972802e-05
7.1688213e-05
8.0149289e-05
9.3887754e-05
0.00010918972
0.0001216701
0.0001267026
0.00012106045
0.00010683504
9.0885848e-05
7.9212842e-05
6.5459099e-05
2.1841814e-05
3.8148562e-05
6.7359564e-05
8.2466436e-05
9.9984002e-05
0.00011419428
0.00011941846
0.0001148811
0.00010338852
8.9737235e-05
7.9028636e-05
7.2662213e-05
6.4792205e-05
5.0608621e-05
4.9186981e-06
3.0937394e-05
5.9335925e-05
6.714323e-05
7.3710859e-05
8.3052471e-05
9.3532386e-05
0.0001019015
0.00010494857
0.00010111498
9.3763395e-05
8.8325049e-05
8.5816845e-05
8.568093e-05
8.3988467e-05
7.9553531e-05
7.6744317e-05
8.4224037e-05
9.7438827e-05
0.00010811091
0.00011221782
0.00010804002
9.8009506e-05
8.6674677e-05
7.8731579e-05
7.3536663e-05
6.3317924e-05
4.6739172e-05
3.9463873e-06
6.9979277e-06
5.1284873e-05
6.1289903e-05
6.7797558e-05
7.4125575e-05
8.0474714e-05
8.577245e-05
8.8809386e-05
8.9727155e-05
9.056467e-05
9.3393921e-05
9.9393513e-05
0.00010452971
0.00010294885
9.4411904e-05
8.540681e-05
8.4711869e-05
9.2360115e-05
9.8198211e-05
0.00010000231
9.6565867e-05
8.9410052e-05
8.2299792e-05
7.8191026e-05
7.3203999e-05
5.8498489e-05
3.5617652e-05
3.5929846e-06
4.3171161e-05
5.4589071e-05
6.2167475e-05
6.8456369e-05
7.371897e-05
7.8389057e-05
8.2807315e-05
8.6624376e-05
9.3123214e-05
0.00010481855
0.00011789362
0.00012613193
0.00012444257
0.00011252934
9.7117591e-05
8.6687818e-05
8.7073645e-05
8.9489163e-05
8.9056417e-05
8.6151396e-05
8.192315e-05
7.8969764e-05
7.7409544e-05
7.0939059e-05
5.1855652e-05
2.4448017e-05
3.5435653e-05
4.8480315e-05
5.6712584e-05
6.3749756e-05
6.9687078e-05
7.48124e-05
7.9482927e-05
8.6178905e-05
9.8608879e-05
0.00011553611
0.00013161459
0.00014132993
0.00014022247
0.00012686234
0.00010780565
9.1090511e-05
8.3533801e-05
8.3037757e-05
8.1808345e-05
7.9321629e-05
7.6977871e-05
7.6414871e-05
7.4807636e-05
6.560278e-05
4.1330732e-05
5.9760743e-06
1.5416466e-05
4.3880946e-05
5.324511e-05
6.0708724e-05
6.7078816e-05
7.249564e-05
7.7428567e-05
8.5668807e-05
0.00010009265
0.00011820896
0.00013513308
0.00014566468
0.00014545695
0.00013214473
0.00011220148
9.3400888e-05
8.1686324e-05
7.8241383e-05
7.6430943e-05
7.4048152e-05
7.2548213e-05
7.2279481e-05
6.8645583e-05
5.459439e-05
3.8174558e-05
1.9719963e-06
1.8338536e-06
2.7911945e-05
5.0663921e-05
5.9435311e-05
6.5880463e-05
7.1019309e-05
7.556606e-05
8.2845921e-05
9.5427148e-05
0.00011175408
0.0001277387
0.00013833331
0.00013844481
0.00012648614
0.00010841568
9.1019413e-05
7.919933e-05
7.4348032e-05
7.1644742e-05
6.9131256e-05
6.8128299e-05
6.7542535e-05
6.0359457e-05
3.2484452e-05
1.3794612e-05
4.7490034e-06
4.103017e-05
5.7522542e-05
6.5515369e-05
7.0738592e-05
7.4559523e-05
7.9549721e-05
8.7749436e-05
9.9784682e-05
0.00011283256
0.00012212027
0.00012245542
0.00011298079
9.8633824e-05
8.4707536e-05
7.5101585e-05
7.0198256e-05
6.6470922e-05
6.3354262e-05
6.189262e-05
5.9509304e-05
4.6651026e-05
2.5433318e-05
1.0271025e-05
4.4111012e-05
6.1677257e-05
6.9994216e-05
7.4707073e-05
7.8908987e-05
8.2416345e-05
8.8203502e-05
9.6140802e-05
0.0001025172
0.0001029466
9.6559801e-05
8.6618839e-05
7.6952535e-05
7.0183466e-05
6.5302338e-05
6.0487387e-05
5.6437925e-05
5.3645895e-05
4.638322e-05
3.3997143e-05
2.4676037e-06
1.0262959e-05
4.1402186e-05
6.0087844e-05
7.0866798e-05
7.7959088e-05
8.0761488e-05
8.1922864e-05
8.3808372e-05
8.597978e-05
8.592908e-05
8.2088791e-05
7.6088857e-05
7.010184e-05
6.468951e-05
5.8993006e-05
5.3092778e-05
4.7237988e-05
4.1272009e-05
3.2966358e-05
2.5285772e-06
8.2998635e-06
2.8218855e-05
5.5818092e-05
6.7958216e-05
7.4118624e-05
7.6806603e-05
7.7536216e-05
7.7448417e-05
7.6635586e-05
7.4076888e-05
6.9856666e-05
6.436078e-05
5.7849648e-05
5.0785253e-05
4.3992381e-05
2.7207117e-05
2.3255222e-05
2.2592877e-06
2.8622914e-06
2.411775e-05
3.9557469e-05
5.2302424e-05
6.0478629e-05
6.6399211e-05
6.9319583e-05
6.9593588e-05
6.7142661e-05
6.1730797e-05
5.4104042e-05
4.5417817e-05
3.5708161e-05
3.4194867e-05
1.1762314e-05
4.2176325e-06
1.5712087e-05
3.1753035e-05
4.3325655e-05
5.3146133e-05
5.5372026e-05
5.4231567e-05
4.9047006e-05
3.4762378e-05
2.5078053e-05
6.0361108e-06
1.7754743e-06
2.1462916e-06
4.7991082e-06
5.3406441e-06
5.3516421e-06
4.3306933e-06
2.0158981e-06
5.2365864e-06
2.3588443e-05
3.9025395e-05
4.1030083e-05
4.0042364e-05
3.2651366e-05
6.7218703e-06
3.9127977e-06
5.2511554e-06
4.2060773e-05
5.300652e-05
5.9589744e-05
6.7400693e-05
7.3212831e-05
7.6199912e-05
7.6496277e-05
7.1988632e-05
6.1612678e-05
4.9541516e-05
3.4570262e-05
1.6149944e-05
2.1827027e-06
2.4122847e-06
3.1437102e-05
5.4326785e-05
6.2192757e-05
6.6019842e-05
7.0811244e-05
7.6314007e-05
8.0708702e-05
8.3909267e-05
8.5981522e-05
8.6734446e-05
8.3743682e-05
7.706839e-05
6.7827283e-05
5.7491436e-05
2.8564841e-05
5.7209696e-06
3.1335822e-06
4.7899134e-05
6.7121692e-05
7.0845783e-05
7.2067096e-05
7.4300455e-05
7.7725514e-05
8.1183197e-05
8.4305302e-05
8.759293e-05
8.9765882e-05
9.1193424e-05
9.2245725e-05
9.0750835e-05
8.5575186e-05
7.8095322e-05
6.574079e-05
4.526194e-05
1.1486746e-05
3.0356981e-06
4.8715163e-05
7.2427007e-05
7.785167e-05
7.8674363e-05
7.949122e-05
8.1136899e-05
8.3389209e-05
8.6151435e-05
9.1378159e-05
9.7730492e-05
0.00010009488
9.8044543e-05
9.5066285e-05
9.3508639e-05
9.1525829e-05
8.7522272e-05
8.2201993e-05
7.2292533e-05
5.1493331e-05
1.209978e-05
2.403794e-06
4.1162504e-05
7.1838768e-05
8.2018609e-05
8.3184761e-05
8.3246118e-05
8.4182893e-05
8.6237822e-05
8.8410572e-05
9.2233236e-05
0.0001014813
0.00011152797
0.00011474153
0.00011028592
0.00010222902
9.49891e-05
9.0956886e-05
8.8586899e-05
8.5952234e-05
8.0667628e-05
7.1115715e-05
4.9911718e-05
1.1124865e-05
2.6973925e-05
6.4931598e-05
8.2573856e-05
8.6323202e-05
8.5420124e-05
8.4954409e-05
8.5925166e-05
8.9027563e-05
9.3242846e-05
9.8144506e-05
0.00011003537
0.00012270422
0.0001265904
0.00012155624
0.00011110746
9.9686391e-05
9.1445053e-05
8.7860946e-05
8.5926807e-05
8.1991144e-05
7.528166e-05
6.4288207e-05
3.2896176e-05
3.0724031e-06
5.8573401e-06
5.8186855e-05
7.9447942e-05
8.832541e-05
8.8565792e-05
8.7883782e-05
8.8673096e-05
8.9169421e-05
9.0599167e-05
9.5986947e-05
0.00010204949
0.00011379573
0.00012715927
0.00013122571
0.00012653707
0.00011575128
0.00010303921
9.3014838e-05
8.8509264e-05
8.6584378e-05
8.278687e-05
7.6496782e-05
6.7925973e-05
5.4867208e-05
2.9541619e-05
3.3174826e-05
6.9068255e-05
8.7815882e-05
9.2537524e-05
9.2393401e-05
9.5518291e-05
9.9084387e-05
9.8881216e-05
9.5643942e-05
9.6248455e-05
0.00010227104
0.00011148746
0.00012300973
0.00012764843
0.00012333933
0.00011338429
0.00010197434
9.3881878e-05
9.0734027e-05
8.8489892e-05
8.4239035e-05
7.8178626e-05
7.0468551e-05
6.0504819e-05
4.3127288e-05
3.7438941e-06
2.0774714e-06
5.0006344e-05
7.9672337e-05
9.3140141e-05
9.5494104e-05
0.00010018052
0.00010874051
0.00011444887
0.00011346404
0.00010625624
9.8308322e-05
9.9230541e-05
0.00010469983
0.00011041226
0.00011432942
0.00011158893
0.00010479964
9.8558618e-05
9.583421e-05
9.3844902e-05
9.0387599e-05
8.5760694e-05
8.0683457e-05
7.4350393e-05
6.5834236e-05
5.1561805e-05
1.8773324e-05
5.3462834e-06
6.3346122e-05
8.6520752e-05
9.4429067e-05
9.9846362e-05
0.00011183582
0.00012429115
0.00013072595
0.00012879345
0.00011895116
0.00010474809
9.518912e-05
9.4530168e-05
9.4843989e-05
9.6464503e-05
9.6681178e-05
9.6525095e-05
9.7786196e-05
9.7743652e-05
9.4685975e-05
9.1075734e-05
8.6933383e-05
8.2710682e-05
7.8220604e-05
7.1979362e-05
5.9935404e-05
3.4066579e-05
1.9442063e-05
7.4632065e-05
8.8726043e-05
9.4477739e-05
0.00010668902
0.00012388187
0.00013786422
0.00014365702
0.00014082549