/*--------------------------------*- C++ -*----------------------------------*\
| =========                 |                                                 |
| \\      /  F ield         | OpenFOAM: The Open Source CFD Toolbox           |
|  \\    /   O peration     | Version:  2406                                  |
|   \\  /    A nd           | Website:  www.openfoam.com                      |
|    \\/     M anipulation  |                                                 |
\*---------------------------------------------------------------------------*/
FoamFile
{
    version     2.0;
    format      ascii;
    arch        "LSB;label=32;scalar=64";
    class       volScalarField;
    location    "150";
    object      p;
}
// * * * * * * * * * * * * * * * * * * * * * * * * * * * * * * * * * * * * * //

dimensions      [0 2 -2 0 0 0 0];

internalField   nonuniform List<scalar> 
150387
(
0.006638244
0.0090562066
0.0090468105
0.0090426423
0.0090536978
0.0090831638
0.009117872
0.0091637739
0.0091861864
0.0091378377
0.0091051838
0.0090770612
0.0090525534
0.0090319336
0.0090244573
0.0090356908
0.0090675422
0.0091170266
0.0091778544
0.0092412963
0.0092479277
0.0092474641
0.009191191
0.0091352739
0.0090926294
0.0090576757
0.0090311732
0.0090067825
0.0089977382
0.0090120184
0.0090485894
0.0090986814
0.0091542731
0.0092088082
0.0092269732
0.0092330145
0.0092211164
0.0093721779
0.0093186962
0.0092498869
0.0091795374
0.0091159716
0.0090658491
0.0090263314
0.0089954397
0.0089643394
0.0089540313
0.0089708112
0.0090131824
0.0090654359
0.0091104041
0.0091497828
0.0091724805
0.0091870314
0.0091816391
0.00916329
0.0094789189
0.0094140205
0.0093310992
0.0092451561
0.0091612777
0.0090865028
0.0090282038
0.0089849175
0.0089481105
0.0089126497
0.008906835
0.0089260925
0.0089633053
0.0090124774
0.0090562384
0.0090845442
0.009100505
0.0091171993
0.0091216091
0.0091176632
0.0091064839
0.0095142792
0.0094321385
0.0093356742
0.0092344557
0.0091344651
0.0090458758
0.0089797031
0.0089354466
0.0088962981
0.0088642794
0.0088782463
0.0089043746
0.0089269369
0.0089432664
0.0089700025
0.008999334
0.009018188
0.0090388025
0.0090517347
0.0090598829
0.009060385
0.0090558196
0.0096016667
0.0095389732
0.009445132
0.009337739
0.0092203717
0.0091011715
0.0089961949
0.0089221342
0.008880122
0.0088478443
0.0088211331
0.0088622502
0.0089063887
0.0089083611
0.0088758903
0.0088708516
0.0088935836
0.0089230817
0.0089543608
0.0089794584
0.0089995903
0.0090123326
0.0090190287
0.0090173601
0.0096567629
0.0096235993
0.009551304
0.0094526029
0.0093366765
0.0092038867
0.0090648323
0.0089422501
0.0088574847
0.0088176073
0.0088012894
0.0087686604
0.0088104407
0.0088626477
0.0088505523
0.0087870063
0.0087635901
0.0087843941
0.0088246473
0.0088705681
0.0089098718
0.0089421719
0.0089652424
0.0089794963
0.0089809775
0.0096799381
0.0096365843
0.0095582565
0.0094615705
0.0093384602
0.0091946956
0.0090435293
0.0089017087
0.0087957027
0.0087473299
0.0087388393
0.0087145785
0.008696386
0.0087122997
0.0087002021
0.0086579167
0.0086530328
0.0086891287
0.0087433947
0.0088008276
0.0088509698
0.0088928055
0.0089246007
0.0089458436
0.0089549618
0.0089606567
0.0096276147
0.0095966992
0.0095417926
0.0094590444
0.0093396921
0.0092108823
0.0090738405
0.0089122777
0.008757034
0.0086750148
0.0086573224
0.008655231
0.0085990447
0.0085448077
0.0085281325
0.0085340173
0.0085720793
0.0086309111
0.0086939356
0.0087513314
0.0088039273
0.008851737
0.0088907622
0.008919222
0.0089353392
0.0089409384
0.0095860378
0.0095673759
0.0095489954
0.0095094023
0.0094365605
0.0093585153
0.0092970601
0.0092027678
0.00902211
0.008776767
0.008621735
0.008571361
0.008571185
0.0085564876
0.0084969514
0.0084737875
0.0084980215
0.0085492319
0.008608858
0.0086518154
0.0086975222
0.008748156
0.0088003615
0.0088480156
0.0088860095
0.0089098412
0.0089187673
0.0095123595
0.0095026864
0.0094873646
0.0094488046
0.0094055187
0.0094088541
0.0094586782
0.0094375452
0.0092229662
0.0088540048
0.0086013289
0.0085089112
0.0084992818
0.0084939372
0.0084798059
0.0084748883
0.0085038109
0.0085366693
0.0085653564
0.0086033691
0.0086511089
0.0087003851
0.0087525154
0.0088055853
0.0088531905
0.0088857791
0.0089025018
0.0089110572
0.0094561839
0.0094418164
0.0094194541
0.0093775125
0.0093671057
0.0094472369
0.0095972044
0.0096357165
0.0093791505
0.008911787
0.0086003076
0.0084959283
0.0084901481
0.0084343718
0.0084414274
0.0084669247
0.0084840686
0.008494984
0.008535235
0.0086007707
0.0086598445
0.0086968
0.0087356702
0.0087849112
0.0088362747
0.0088737304
0.0088972129
0.0089098165
0.0094096523
0.0093925796
0.0093589188
0.0093151778
0.0093096283
0.0093895814
0.0095259562
0.0095376822
0.009269622
0.008843983
0.0085927274
0.0085361298
0.008550323
0.0085153868
0.0084063108
0.0084364182
0.008467649
0.0084838973
0.0085655406
0.0086756145
0.0087374591
0.0087449634
0.0087598797
0.0087987117
0.008847242
0.0088831471
0.0089064901
0.0089164744
0.0093784529
0.0093532451
0.0093138862
0.0092604682
0.0092277489
0.0092422641
0.0092682118
0.0091924286
0.0089826438
0.0087418515
0.0086386623
0.0086201358
0.0086100594
0.008639651
0.0084489205
0.0084428818
0.0084926802
0.0085141029
0.0086106455
0.0087385561
0.008800739
0.0087970192
0.0088055894
0.0088437554
0.0088887658
0.0089155331
0.008927882
0.0089382958
0.0093562375
0.0093340179
0.0092961208
0.0092387895
0.0091819159
0.0091367729
0.0090871454
0.0089909438
0.0088770942
0.0087949727
0.0087674277
0.008697732
0.0086100584
0.0085399974
0.0084591313
0.0084578309
0.0085214754
0.0085707418
0.0086351845
0.0087313923
0.0088018414
0.0088304878
0.0088650527
0.0089134868
0.0089553145
0.0089739041
0.0089799323
0.0089906574
0.0093522823
0.009333929
0.0093046134
0.0092545412
0.0091933826
0.0091283015
0.0090589437
0.0089872835
0.0089440256
0.0089255081
0.0088477499
0.0087349023
0.0086432624
0.0085691542
0.0084885715
0.0084796405
0.0085451619
0.0086274216
0.0086767717
0.0087333897
0.0088065309
0.0088723003
0.0089346215
0.0089920573
0.0090314836
0.0090485214
0.0090502516
0.0090382244
0.0093537635
0.0093475553
0.0093302464
0.0092951564
0.009245816
0.0091869942
0.0091267289
0.0090755931
0.00903897
0.0089663016
0.0088891491
0.0088558379
0.0088454267
0.0087827324
0.0086256753
0.0085468978
0.0085761077
0.0086581176
0.0087301494
0.0087784822
0.008846675
0.0089276864
0.009001522
0.0090614242
0.0091058014
0.0091308133
0.0091277873
0.0093650395
0.0093576947
0.0093358156
0.009301653
0.0092551013
0.0092016693
0.0091428677
0.0090738321
0.0090168448
0.0090209041
0.0091270418
0.0092422209
0.009186198
0.0088937506
0.0086813003
0.0086318076
0.0086906604
0.0087725877
0.0088397255
0.0089075253
0.0089847768
0.0090573189
0.0091225759
0.0091778698
0.0092090155
0.0091941111
0.0093862812
0.0093857628
0.0093716936
0.0093464285
0.0093086185
0.0092606555
0.0092024641
0.0091438597
0.0091122581
0.0091681195
0.0093452324
0.0095306937
0.0094825938
0.0091202792
0.0088192513
0.0087041172
0.0087358023
0.0088189162
0.0088989657
0.0089686147
0.0090377416
0.0091073927
0.0091702942
0.0092197676
0.0092363442
0.0092289428
0.0094212819
0.0094154871
0.0094004339
0.0093740512
0.0093388961
0.0092946899
0.0092497493
0.0092207764
0.009260423
0.0093974674
0.0095374928
0.0094950215
0.0091839492
0.0089066937
0.00878425
0.0088010246
0.0088782105
0.0089609043
0.0090297113
0.0090914961
0.0091539426
0.0092115445
0.0092550672
0.0092592819
0.0094456084
0.0094615193
0.0094619483
0.0094498995
0.0094296208
0.0094010517
0.0093694535
0.0093342628
0.009319827
0.0093483806
0.0093759674
0.0093206798
0.0091116733
0.0089296715
0.0088506122
0.0088725508
0.0089426997
0.0090187306
0.0090809626
0.0091338274
0.0091859913
0.0092301597
0.0092569026
0.0092651592
0.0095065318
0.0095228493
0.0095262498
0.0095189546
0.0095009026
0.0094799432
0.0094456689
0.0093917953
0.0093351302
0.0092729079
0.0091914054
0.009054812
0.0089510492
0.0089140393
0.0089422954
0.0090034412
0.0090674411
0.0091195336
0.0091630017
0.0092029912
0.0092328093
0.0092503297
0.0095691929
0.0095910223
0.0095980114
0.0095861396
0.0095664846
0.0095281293
0.0094666964
0.0093731494
0.0092677832
0.0091625002
0.0090611965
0.0089975143
0.008980269
0.0090067349
0.0090545666
0.0091036344
0.0091445411
0.0091777064
0.0092048717
0.0092265714
0.0096278926
0.009654009
0.009650645
0.0096384065
0.0095762422
0.0095103494
0.0094168639
0.009308166
0.0092019466
0.0091146994
0.0090631546
0.0090473168
0.0090627099
0.0090937034
0.009127668
0.0091586655
0.0091819316
0.0092007127
0.0096660995
0.0096776745
0.0096810972
0.009606075
0.0095217128
0.0094265825
0.0093306688
0.0092396552
0.0091649287
0.0091179145
0.0090990061
0.0091023514
0.0091171299
0.0091348792
0.0091569809
0.0091725525
0.0096774529
0.0096071956
0.0095268212
0.0094320908
0.0093461637
0.0092689017
0.0092038058
0.0091559019
0.0091249689
0.0091169808
0.0091236253
0.0091371018
0.0094411045
0.0093627724
0.0092922724
0.0092299465
0.0091725978
0.0091496226
0.0091198246
0.0090959315
0.0090691786
0.0090511257
0.0090459696
0.0090560211
0.009083291
0.0091271386
0.0091685814
0.0091967751
0.0091342529
0.0091097017
0.0090800578
0.0090524181
0.0090240784
0.0090182779
0.0090335746
0.0090705782
0.0091268179
0.0091755302
0.0092513404
0.0092370017
0.0092328174
0.009314635
0.0092505866
0.0091931841
0.009137467
0.0090967866
0.0090588123
0.0090244147
0.0089923291
0.008986711
0.0090076738
0.0090512597
0.0091107683
0.0091564623
0.0092257738
0.0092112046
0.009227558
0.0092151212
0.0093941117
0.0093131925
0.0092482227
0.0091751988
0.0091109513
0.0090614422
0.0090170599
0.0089720549
0.0089303373
0.0089229801
0.0089446568
0.0089925714
0.0090565026
0.0091039584
0.0091586492
0.0091656959
0.0091860524
0.0091724863
0.0091660396
0.0094803386
0.0094085785
0.0093300634
0.0092402805
0.0091539831
0.0090777959
0.0090188835
0.0089678008
0.0089126395
0.0088645159
0.0088623589
0.0088808384
0.0089220893
0.0089795683
0.0090312179
0.0090800245
0.009093581
0.0091180633
0.00912229
0.0091142386
0.0091128868
0.0095578245
0.0095075311
0.0094297582
0.0093287567
0.0092209221
0.0091164066
0.0090275589
0.008962645
0.0089103333
0.0088504966
0.0088016821
0.0088112944
0.00882847
0.0088546861
0.0088861308
0.008926963
0.0089774553
0.009006742
0.0090395142
0.0090544544
0.0090645311
0.0090558132
0.0090618995
0.0096004901
0.00953879
0.0094401825
0.0093238912
0.0091937432
0.0090685217
0.0089664945
0.0088981406
0.0088525974
0.0087980597
0.0087468974
0.0087718119
0.0087928399
0.0087977503
0.0087941999
0.0088167161
0.0088634743
0.008908343
0.0089539163
0.0089842671
0.009007421
0.0090171738
0.0090209644
0.0090185478
0.0096509841
0.0096060034
0.0095411161
0.0094347227
0.0093025408
0.0091513914
0.0090073351
0.0088932287
0.0088217951
0.0087862588
0.0087505185
0.0086870888
0.0087023963
0.0087200785
0.0087125637
0.0086938916
0.0087112272
0.0087593545
0.0088156745
0.0088742726
0.0089188531
0.0089543922
0.0089742818
0.008988113
0.0089890637
0.009680197
0.0096453532
0.0095573474
0.0094387092
0.0092834637
0.0091163199
0.0089582997
0.0088280279
0.0087422453
0.008707876
0.0086951097
0.0086367146
0.0086123001
0.0085986777
0.0085905916
0.0085887316
0.0086198165
0.0086794137
0.008745433
0.008809794
0.0088625073
0.0089070538
0.0089369792
0.0089583399
0.0089560228
0.0089600317
0.0096179374
0.0096120987
0.0095897059
0.0095161622
0.0094001131
0.0092502299
0.0090975669
0.0089473764
0.0087963054
0.0086719072
0.0086192207
0.0086114587
0.0085914255
0.0085329549
0.00848901
0.0084849951
0.008510731
0.0085654557
0.0086314412
0.0086903715
0.0087478873
0.00880277
0.0088551929
0.0088965612
0.0089289694
0.0089387328
0.0089485252
0.0095822767
0.0095534756
0.0095335281
0.0094568793
0.0093512829
0.0092383464
0.0091330521
0.0090152397
0.0088397041
0.008644838
0.0085460247
0.0085272538
0.0085356067
0.0085100195
0.008469177
0.0084654475
0.0085011094
0.0085443631
0.0085858176
0.0086253088
0.0086760418
0.0087327972
0.0087924816
0.0088446265
0.0088885791
0.0089088064
0.0089234531
0.0095226051
0.0094849783
0.0094542496
0.0093750606
0.0093043198
0.0092596051
0.009235504
0.0091595205
0.0089478233
0.0086682069
0.0085062236
0.00846138
0.0084661445
0.0084559914
0.0084563799
0.0084723512
0.0084937041
0.0085014297
0.0085227427
0.0085629661
0.00861895
0.0086779507
0.0087415117
0.0088018896
0.0088566368
0.008885103
0.0089068202
0.0089131632
0.0094594574
0.0094153096
0.0093768214
0.0092994626
0.0092534914
0.0092620258
0.0092999383
0.0092533398
0.0090131957
0.0086897078
0.008513745
0.0084682792
0.0084932951
0.0084333795
0.0084372699
0.0084461429
0.0084545846
0.0084456444
0.0084792144
0.0085421684
0.0086119511
0.0086656961
0.0087220605
0.0087824895
0.0088424824
0.0088765045
0.0089013353
0.0089110237
0.0094046866
0.0093763812
0.0093231599
0.0092503027
0.0092136951
0.0092271389
0.0092584319
0.0091960457
0.0089567622
0.0086772159
0.0085461697
0.0085326695
0.0085308604
0.008522676
0.0083952437
0.0084168728
0.0084440737
0.0084362075
0.0085101775
0.0086067705
0.0086760187
0.0087094125
0.0087502358
0.0088026252
0.0088575839
0.0088921833
0.0089047247
0.008921677
0.0093824932
0.0093335504
0.0092856396
0.0092073912
0.0091527616
0.0091172578
0.0090748933
0.0089684955
0.0088066766
0.0086695962
0.0086201861
0.0085907012
0.0085897359
0.0086242208
0.008449554
0.0084394886
0.0084812937
0.0084804784
0.0085622488
0.0086647421
0.0087320005
0.0087627921
0.0088023136
0.0088527812
0.0089024175
0.0089238464
0.0089205294
0.0089408829
0.0093596447
0.0093233826
0.0092807197
0.0092042067
0.0091329445
0.0090635279
0.0089890805
0.008893806
0.008815032
0.00876363
0.0087068671
0.0086084865
0.0085375398
0.0084734748
0.0084226943
0.0084394389
0.0085116584
0.0085412434
0.008600537
0.0086808253
0.0087548758
0.0088108348
0.0088690053
0.008926349
0.0089715975
0.0089881037
0.0089730714
0.0089852811
0.0093552346
0.0093316481
0.0093004097
0.0092370296
0.0091677952
0.0090912272
0.009018759
0.0089518485
0.008911722
0.00885529
0.0087444205
0.0086277052
0.0085485947
0.0084868202
0.0084291145
0.0084512024
0.0085331314
0.0086039751
0.0086568928
0.008721047
0.0087994807
0.008874388
0.0089488739
0.009011115
0.0090538229
0.0090665498
0.0090440177
0.0093584735
0.0093538764
0.0093372335
0.0092921512
0.0092384225
0.0091739006
0.0091117221
0.0090529934
0.0089837966
0.0088816923
0.0087838365
0.0087209432
0.0086857699
0.0086316774
0.0085110692
0.0084857404
0.008551927
0.0086440135
0.0087192261
0.0087817792
0.0088585773
0.0089429732
0.0090237292
0.0090839907
0.0091277153
0.0091409532
0.0091213513
0.0093714762
0.0093719191
0.0093449635
0.0093080209
0.0092552127
0.0091952755
0.009120384
0.0090313265
0.0089480156
0.0089107069
0.0089512
0.0089869858
0.008934483
0.0087073741
0.0085828541
0.0085949932
0.0086834703
0.0087771731
0.0088565073
0.0089360144
0.0090189725
0.0090957604
0.0091590529
0.009212354
0.0092340509
0.0091934677
0.0093924535
0.0094049232
0.0093889768
0.0093652806
0.0093231723
0.0092691107
0.0091948103
0.0091183954
0.0090549951
0.0090546136
0.0091420325
0.0092119452
0.0091694822
0.0088862298
0.0086969259
0.0086582453
0.0087312294
0.0088326997
0.0089240063
0.0090028219
0.0090752759
0.0091390151
0.0091907662
0.0092256883
0.0092223025
0.0092223638
0.0094187138
0.0094393377
0.009435499
0.0094237586
0.0093959532
0.0093582487
0.0093007551
0.0092394586
0.0091798037
0.0091640518
0.0092142851
0.0092501569
0.0092097515
0.0089732754
0.0087980271
0.0087478749
0.0088048048
0.0089000717
0.0089919026
0.0090683664
0.0091331759
0.009189327
0.0092368361
0.0092692719
0.0092543692
0.009454778
0.0094779915
0.0094879056
0.0094761025
0.0094568999
0.0094160691
0.0093739927
0.0093063961
0.009254958
0.009222722
0.009194999
0.0091409577
0.008978853
0.0088624206
0.0088308797
0.0088822451
0.0089660164
0.0090483644
0.0091155019
0.0091680278
0.0092129482
0.0092427281
0.009254292
0.009510991
0.0095434447
0.0095526919
0.009547201
0.0095180975
0.0094979709
0.009429078
0.0093480258
0.0092588653
0.0091752391
0.0090981349
0.0089879306
0.0089214913
0.0089119556
0.008959179
0.0090281261
0.0090956749
0.0091502651
0.0091918166
0.0092210191
0.0092344652
0.0092491913
0.0095719939
0.0096084304
0.0096222052
0.0095984014
0.0095861487
0.0095171395
0.0094348531
0.0093207832
0.0092085217
0.0091139162
0.0090293285
0.0089868149
0.0089865398
0.0090238764
0.0090758837
0.0091263783
0.0091680584
0.009194222
0.0092098338
0.0092263434
0.0096275589
0.0096678569
0.0096470773
0.0096561676
0.0095730351
0.00949647
0.0093850185
0.0092750165
0.0091793205
0.0091045297
0.0090666376
0.0090590193
0.0090797586
0.0091116919
0.0091446056
0.0091743901
0.0091870984
0.0092046368
0.009662811
0.0096706294
0.0096806082
0.0095846151
0.0095045228
0.0094012056
0.0093023304
0.0092169445
0.0091501771
0.0091124216
0.0091006571
0.0091086231
0.0091241187
0.0091389524
0.0091663193
0.0096580656
0.0096058605
0.0095256112
0.0094304504
0.0093447243
0.009266627
0.0092000943
0.0091525024
0.0091242779
0.0091180826
0.0091307009
0.0091442514
0.0094357823
0.0093561707
0.0092905751
0.0092288312
0.0091824427
0.0091327045
0.0091026685
0.0090755986
0.0090512935
0.009046898
0.0090580825
0.0090882653
0.0091320649
0.0091697671
0.0092058765
0.0091344184
0.0091115282
0.0090799842
0.0090481709
0.0090153204
0.0090077859
0.0090227426
0.0090622253
0.0091230175
0.0091748582
0.0092532985
0.0092347358
0.0092313674
0.0093242317
0.0092560974
0.0091977536
0.0091394117
0.0090983927
0.0090579052
0.0090183643
0.0089820038
0.0089745094
0.00899583
0.0090435076
0.0091103928
0.0091604733
0.0092376355
0.009210146
0.0092315711
0.0092192224
0.009405693
0.0093181863
0.0092533803
0.0091776442
0.0091110515
0.0090598901
0.0090113234
0.0089597957
0.0089121318
0.0089013687
0.0089220039
0.0089746284
0.0090472965
0.0090994715
0.009163705
0.0091697827
0.0091950997
0.0091778541
0.0091738334
0.0094858373
0.0094149535
0.0093367235
0.0092441206
0.0091549406
0.0090757138
0.0090142132
0.0089581079
0.0088956996
0.0088408078
0.0088338589
0.0088487464
0.0088950158
0.0089611275
0.0090204324
0.0090797542
0.0090950884
0.009125969
0.0091308783
0.0091217835
0.0091219881
0.0095598735
0.0095132218
0.0094379304
0.0093329123
0.0092207268
0.0091115909
0.0090193395
0.0089519362
0.0088953374
0.008828523
0.0087727398
0.0087758321
0.0087839189
0.0088160655
0.008856652
0.0089068515
0.0089690804
0.0090040984
0.0090444795
0.0090608628
0.0090722499
0.0090618577
0.0090709964
0.0096055817
0.0095485325
0.0094465776
0.0093243311
0.0091862813
0.0090543148
0.0089491388
0.008879412
0.0088317962
0.0087718357
0.0087134848
0.0087257952
0.0087318786
0.0087451377
0.0087534003
0.0087874231
0.0088462616
0.008899531
0.0089540622
0.0089880985
0.0090134203
0.009023108
0.0090266651
0.0090301428
0.0096523205
0.0096062474
0.0095456751
0.0094327233
0.0092918393
0.0091293729
0.0089767793
0.0088608444
0.0087910213
0.0087564525
0.0087196385
0.0086486762
0.0086529207
0.008649934
0.0086487722
0.0086459307
0.0086752288
0.0087359985
0.0088011812
0.0088690282
0.008918559
0.0089575586
0.0089778719
0.0089923945
0.0089965229
0.0096895118
0.0096627515
0.0095624059
0.0094327093
0.00926252
0.009078685
0.0089077553
0.008777376
0.0086966349
0.008666923
0.0086586827
0.0086025428
0.0085703731
0.0085442052
0.0085375951
0.0085455731
0.0085853801
0.0086539606
0.0087275853
0.0088000577
0.0088578264
0.0089063599
0.0089378235
0.0089600752
0.0089566719
0.0089630919
0.0096206883
0.0096157489
0.0095940843
0.0095077659
0.0093792993
0.0092103126
0.0090361605
0.0088669399
0.0087191228
0.0086069556
0.008566348
0.0085679254
0.0085523668
0.0084957787
0.0084493091
0.0084464284
0.0084755471
0.0085350445
0.0086063667
0.0086690116
0.0087322522
0.0087910889
0.0088479499
0.0088921864
0.008927523
0.0089366381
0.0089482948
0.009589439
0.0095523724
0.0095309056
0.009438362
0.0093152602
0.0091778217
0.009043461
0.008897573
0.0087302736
0.0085586544
0.008480803
0.008477435
0.0084953578
0.0084724489
0.0084334481
0.0084325037
0.0084711383
0.0085160509
0.0085564557
0.0085965206
0.0086508427
0.0087119529
0.0087771357
0.0088337765
0.0088823185
0.0089029436
0.0089192067
0.0095367967
0.0094766713
0.0094421595
0.0093444
0.009253641
0.0091752677
0.0091109036
0.0089989678
0.0088036741
0.008559021
0.0084279957
0.0084040151
0.0084195672
0.0084179701
0.0084230371
0.0084412067
0.008465467
0.0084704837
0.0084873329
0.0085259433
0.0085845282
0.0086489049
0.0087191919
0.008785639
0.0088467715
0.0088759208
0.0088991056
0.0089140147
0.0094684658
0.0094009971
0.0093551991
0.0092587255
0.0091909349
0.0091610034
0.0091515433
0.0090670972
0.0088506822
0.0085704563
0.0084310298
0.0084065228
0.0084538637
0.0084026176
0.0084015816
0.0084141678
0.0084245333
0.0084116429
0.008436084
0.0084932845
0.0085681468
0.0086298755
0.0086939843
0.0087614641
0.0088294274
0.0088647998
0.0088904866
0.0089107618
0.0094088203
0.0093676083
0.0093010224
0.0092097721
0.0091513509
0.0091293149
0.0091145892
0.0090181057
0.0088052198
0.0085653337
0.0084642665
0.0084650197
0.0084736634
0.0084910987
0.0083619459
0.0083833689
0.0084123704
0.0084013208
0.0084649996
0.0085494247
0.0086241685
0.0086707509
0.008719617
0.0087801203
0.0088432261
0.0088818838
0.008898391
0.0089211307
0.0093895077
0.0093197934
0.009265834
0.0091728215
0.0091040917
0.0090437578
0.0089736996
0.0088475643
0.0087055029
0.008589866
0.0085497102
0.0085269059
0.0085279562
0.0085787222
0.0084162969
0.0084017843
0.0084485812
0.0084446561
0.0085153361
0.0086030429
0.0086770015
0.0087223004
0.0087715554
0.008829979
0.0088879881
0.0089097826
0.0089039976
0.008938444
0.0093625756
0.009313418
0.0092662014
0.0091768604
0.0090945798
0.0090100619
0.0089189596
0.0088116893
0.0087397142
0.0086926888
0.0086364798
0.0085402795
0.0084719033
0.0084104565
0.008370106
0.008394714
0.0084765048
0.0085078287
0.0085626505
0.0086383339
0.0087152252
0.0087794409
0.0088452406
0.0089090733
0.0089622811
0.0089783516
0.0089625831
0.008980474
0.0093586704
0.0093255256
0.0092912771
0.0092181953
0.0091399249
0.0090523153
0.0089697659
0.0088930568
0.0088507925
0.0087916386
0.0086755056
0.0085532938
0.0084656893
0.0084033174
0.0083567969
0.008392074
0.0084900521
0.0085684922
0.0086269137
0.0086929938
0.0087752559
0.0088543952
0.0089353305
0.0090034077
0.0090526063
0.0090614061
0.0090422578
0.0093629362
0.0093517331
0.0093336935
0.0092821711
0.0092225767
0.0091501913
0.0090801176
0.0090112487
0.0089345335
0.0088221262
0.0087104823
0.0086288902
0.0085660073
0.0085109391
0.0084101768
0.0084067169
0.0084945236
0.0086045077
0.0086907887
0.0087600349
0.0088414749
0.0089318323
0.0090193512
0.0090841954
0.0091317927
0.0091386438
0.0091210985
0.0093727338
0.0093732843
0.0093433853
0.0093030406
0.0092441241
0.009176554
0.0090904367
0.0089895121
0.0088889163
0.0088249932
0.0088283228
0.0088214983
0.0087669734
0.0085716058
0.0084841621
0.0085263962
0.0086384547
0.0087494378
0.0088396473
0.0089276055
0.0090185162
0.0091019604
0.0091689968
0.0092268587
0.0092428488
0.0091915292
0.0093973255
0.0094099444
0.0093926979
0.0093677933
0.0093207778
0.0092597737
0.0091728914
0.0090823747
0.0089953729
0.0089601902
0.0090016959
0.0090215198
0.0089758393
0.0087301261
0.0085856961
0.0085818353
0.0086821739
0.0088049392
0.0089107878
0.0089997339
0.0090796386
0.0091460901
0.0091981906
0.0092269394
0.0092197255
0.0092204199
0.0094307257
0.009446097
0.0094425993
0.0094307963
0.0094001744
0.0093575518
0.0092881486
0.0092141952
0.0091347228
0.0090905899
0.0091041511
0.009097049
0.009052835
0.0088447502
0.0087044914
0.0086822311
0.0087621791
0.0088773416
0.0089843916
0.0090717074
0.0091434897
0.0092012132
0.0092487357
0.0092747264
0.0092574913
0.0094633852
0.0094857218
0.0094978532
0.0094846501
0.0094631658
0.0094124775
0.0093610111
0.0092756446
0.0092053475
0.0091468496
0.0090896046
0.0090338049
0.0088871969
0.0087931373
0.0087795224
0.0088486912
0.0089491009
0.0090448735
0.009121627
0.0091789693
0.0092245329
0.0092513745
0.0092613566
0.0095202818
0.0095538719
0.0095643721
0.0095577596
0.00952097
0.0094959101
0.0094120966
0.0093171825
0.0092109894
0.0091100929
0.0090303644
0.0089280515
0.0088735492
0.0088753948
0.0089366976
0.0090181938
0.0090965548
0.009158686
0.0092034715
0.0092318763
0.0092442567
0.0092573246
0.0095813019
0.0096168564
0.0096341519
0.0096048955
0.0095905561
0.0095098649
0.0094179249
0.0092890874
0.0091644777
0.0090684601
0.0089878388
0.008952937
0.0089620987
0.0090098101
0.0090709304
0.0091293775
0.0091771451
0.0092038501
0.009220454
0.0092392465
0.0096351434
0.009674774
0.0096489479
0.0096711022
0.0095770678
0.0094930857
0.0093699978
0.009250898
0.0091524542
0.0090798568
0.0090475337
0.0090457754
0.009073051
0.0091106797
0.0091490941
0.009183056
0.0091955178
0.0092170037
0.0096655756
0.0096715309
0.0096846712
0.0095831264
0.0094980325
0.0093882893
0.0092836023
0.0091968903
0.0091312251
0.0090972019
0.0090910732
0.009103877
0.0091245014
0.0091384688
0.0091760367
0.0096502495
0.0096063968
0.0095329239
0.0094317367
0.0093388641
0.0092557503
0.0091864006
0.0091391864
0.0091162985
0.009114519
0.0091336384
0.0091521632
0.0094394125
0.0093647215
0.0092964124
0.0092324459
0.009185687
0.0091364007
0.0091034951
0.0090740175
0.0090479112
0.009046699
0.0090625856
0.0090961059
0.0091400692
0.0091798147
0.0092133419
0.0091276091
0.0091034072
0.0090662303
0.0090292436
0.0089918307
0.0089836818
0.0090003105
0.0090459758
0.0091196287
0.0091838404
0.0092727166
0.009239653
0.0092372757
0.0093358405
0.0092641887
0.0092009694
0.0091345169
0.0090885784
0.0090409341
0.0089947075
0.0089544367
0.0089472282
0.0089704818
0.0090254309
0.0091084636
0.0091755226
0.0092752981
0.0092198153
0.0092471108
0.009229666
0.0094197799
0.009327857
0.0092598759
0.0091760764
0.0091008378
0.0090427755
0.008985078
0.0089263142
0.0088741355
0.0088633056
0.0088837483
0.0089418152
0.009028338
0.0090936309
0.0091815278
0.0091852418
0.0092198042
0.0091938495
0.009188904
0.009497986
0.0094307297
0.0093499137
0.009248816
0.0091504874
0.009061337
0.0089912177
0.0089252846
0.0088566338
0.008798555
0.0087914677
0.0088048333
0.0088537363
0.0089293735
0.0090011795
0.0090813175
0.009100861
0.0091445161
0.0091509388
0.0091393875
0.0091383435
0.0095679391
0.0095288374
0.0094576026
0.009342264
0.0092185356
0.009098285
0.0089959415
0.0089196314
0.0088539405
0.008782922
0.0087251176
0.0087295045
0.0087314912
0.0087644928
0.0088122641
0.0088742179
0.0089540504
0.0089984949
0.0090531601
0.0090731607
0.0090869755
0.0090734079
0.0090843872
0.00962231
0.009573775
0.0094625205
0.0093267638
0.0091731971
0.0090290388
0.008914772
0.0088369159
0.0087816189
0.0087193879
0.0086613512
0.0086749048
0.0086733546
0.0086845482
0.0086993663
0.0087437925
0.0088178678
0.0088818558
0.0089503196
0.0089908862
0.0090206084
0.0090307616
0.0090353425
0.0090436221
0.0096608137
0.0096196624
0.0095631238
0.0094337109
0.0092758863
0.0090963517
0.0089318805
0.008809326
0.008734534
0.0086943032
0.0086584116
0.0085886336
0.0086003239
0.0085922782
0.0085837201
0.0085866449
0.0086244723
0.0086988289
0.0087734647
0.0088532387
0.0089098972
0.0089550746
0.0089770077
0.0089946212
0.0090031973
0.0097174079
0.009707217
0.0095798479
0.0094263221
0.009231805
0.0090263585
0.0088411562
0.0087060223
0.0086244553
0.008593553
0.0085869137
0.0085398542
0.0085198661
0.0084893751
0.0084761984
0.0084864358
0.0085334131
0.0086098804
0.0086901504
0.008772354
0.0088371937
0.008892561
0.0089273424
0.008953304
0.0089487729
0.0089633586
0.0096312294
0.009634704
0.0096104739
0.0094953818
0.0093464768
0.0091534862
0.0089560714
0.0087693928
0.0086203047
0.0085144295
0.0084812337
0.0084870286
0.008476085
0.0084339024
0.0083912595
0.0083869107
0.0084166178
0.0084790285
0.0085542365
0.0086214052
0.0086931662
0.0087585721
0.0088225079
0.0088712899
0.0089125471
0.008922496
0.008943163
0.0096057223
0.0095536419
0.0095281294
0.0094088835
0.0092638921
0.0090984833
0.0089356957
0.0087679305
0.0086034493
0.0084463905
0.0083854704
0.0083922376
0.008416844
0.008401421
0.0083689697
0.0083710569
0.008409683
0.0084542258
0.0084966042
0.0085414974
0.0086024209
0.0086695111
0.0087417258
0.0088035094
0.0088594619
0.0088819371
0.0089072666
0.0095551651
0.0094619149
0.0094209159
0.0092982047
0.0091858259
0.0090751135
0.0089780377
0.0088443988
0.0086538967
0.0084289466
0.0083228722
0.0083127011
0.0083375367
0.0083444877
0.0083538669
0.0083732733
0.0083993144
0.0084054047
0.008426404
0.0084680962
0.0085310533
0.008601354
0.0086784336
0.0087500127
0.0088193115
0.0088506854
0.0088830905
0.0089070531
0.0094847056
0.009377035
0.0093219322
0.0092034364
0.0091181359
0.0090575045
0.009016914
0.0089149497
0.0087028856
0.0084414041
0.008326644
0.0083110209
0.008381298
0.0083445918
0.0083404264
0.0083450983
0.0083581715
0.0083479723
0.0083743208
0.0084298991
0.0085113008
0.0085794473
0.0086496331
0.0087220737
0.0087990789
0.0088365272
0.0088706521
0.0089033919
0.009415614
0.0093513265
0.0092674777
0.0091568236
0.0090811514
0.0090323939
0.0089881397
0.0088726451
0.0086613138
0.0084396119
0.008357434
0.008360672
0.0083858345
0.0084258469
0.0083069586
0.0083149043
0.0083478415
0.0083434558
0.0084120261
0.0084948046
0.0085713636
0.0086239731
0.0086768625
0.0087420622
0.0088134002
0.0088581398
0.0088853813
0.0089143651
0.0093993734
0.0092933886
0.0092322419
0.0091222528
0.009039782
0.0089550282
0.0088631992
0.0087241502
0.008585414
0.0084774704
0.0084386595
0.0084167944
0.0084321338
0.0084975722
0.008353355
0.0083291589
0.0083826676
0.0083856507
0.0084629897
0.0085498103
0.0086235859
0.0086751387
0.008729889
0.0087924124
0.0088604025
0.0088841724
0.0088827838
0.0089337343
0.0093665565
0.009290932
0.0092364112
0.009130723
0.0090372496
0.0089359157
0.0088270895
0.0087057666
0.0086308625
0.0085796444
0.008518684
0.0084273851
0.0083687057
0.0083135794
0.0082811459
0.0083124604
0.0084040585
0.0084425425
0.0085080019
0.0085885895
0.0086670748
0.0087363796
0.00880862
0.00887859
0.0089443088
0.0089616987
0.0089509144
0.0089784117
0.009360739
0.009306923
0.0092669433
0.0091796109
0.0090909067
0.0089896854
0.0088946123
0.0088044465
0.0087508272
0.008681805
0.0085645717
0.008444009
0.0083590492
0.0082971382
0.008254823
0.00829847
0.0084101843
0.0084995989
0.0085752311
0.0086489477
0.0087363486
0.0088207302
0.0089103285
0.0089882989
0.0090520763
0.0090566345
0.0090432435
0.0093645101
0.0093395321
0.009317302
0.0092546266
0.0091866215
0.0091025394
0.0090210794