/*--------------------------------*- C++ -*----------------------------------*\
| =========                 |                                                 |
| \\      /  F ield         | OpenFOAM: The Open Source CFD Toolbox           |
|  \\    /   O peration     | Version:  2406                                  |
|   \\  /    A nd           | Website:  www.openfoam.com                      |
|    \\/     M anipulation  |                                                 |
\*---------------------------------------------------------------------------*/
FoamFile
{
    version     2.0;
    format      ascii;
    arch        "LSB;label=32;scalar=64";
    class       volScalarField;
    location    "950";
    object      epsilon;
}
// * * * * * * * * * * * * * * * * * * * * * * * * * * * * * * * * * * * * * //

dimensions      [0 2 -3 0 0 0 0];

internalField   nonuniform List<scalar> 
150387
(
0.0024137738
0.00097751168
0.00086627997
0.00082281402
0.00082865341
0.0011771245
0.0019698262
0.0036937077
0.0062257749
0.0010096694
0.00081993277
0.00076742935
0.00074722867
0.0007434885
0.00075166929
0.00075696207
0.00075788719
0.00078798294
0.0008275492
0.00097806492
0.0028131725
0.00098425419
0.00085527177
0.00083989458
0.00089309705
0.00095776195
0.00099761553
0.0010062323
0.00098731185
0.00094426325
0.00088975069
0.00084828086
0.00083546597
0.00084760357
0.00091403606
0.0010809331
0.0026419198
0.0069947303
0.0010132144
0.00089791943
0.00097685324
0.0011015233
0.0012283195
0.0013415196
0.001439655
0.0014915127
0.0014742435
0.0013783336
0.001243329
0.0010977498
0.00098156771
0.00092797972
0.00091452691
0.0009334551
0.00098634226
0.0020161659
0.007222358
0.0010449465
0.00096492039
0.0010675263
0.0012088793
0.0013525768
0.0014919539
0.0016396
0.0018025686
0.0019320536
0.0019910877
0.0019464504
0.0017900986
0.0015753199
0.0013336137
0.001129135
0.0010346823
0.00099798513
0.00097620301
0.0010576306
0.0012606189
0.0010997216
0.0009660446
0.0010614819
0.001190929
0.0013280892
0.0014783331
0.0016663548
0.0018791673
0.0020828191
0.0022463917
0.0023425773
0.0023772927
0.0023088407
0.0021336874
0.001858734
0.0015265214
0.0012578784
0.001139005
0.0010764639
0.001021846
0.00098637629
0.0017844811
0.0012716922
0.00098495905
0.0010082831
0.0011058668
0.0012329302
0.0014033722
0.0016444164
0.0019241826
0.0021837312
0.0023995953
0.0025747749
0.0026661669
0.0026633379
0.0026288586
0.0025735484
0.0024020893
0.0020725496
0.001648162
0.0013567696
0.0012234267
0.0011365923
0.001016507
0.0010880224
0.0024143679
0.0053945336
0.0010310857
0.00094118023
0.001005159
0.0011238942
0.0013118904
0.0016102737
0.0019741556
0.002303975
0.0025432502
0.002691755
0.0027884328
0.0029065161
0.0029580868
0.0028992903
0.0028031215
0.0026966952
0.0025028768
0.0021261185
0.0016889674
0.0014130955
0.0012813055
0.0011478978
0.00099207799
0.0010348368
0.001169981
0.00088269607
0.00090851824
0.0010095794
0.0011917878
0.0015184304
0.0019597736
0.0023655369
0.0026354629
0.0027473259
0.0026607046
0.0024677172
0.0023572008
0.0024450185
0.0026144206
0.0027599235
0.0027904646
0.0026965236
0.0024567221
0.0020434328
0.0016525842
0.0014370859
0.0012985195
0.0010672194
0.00091415516
0.0016128748
0.0009051844
0.00083207886
0.00089734209
0.0010506379
0.0013525004
0.0018268181
0.0023114237
0.0026441079
0.0027833348
0.0025182989
0.0019422924
0.0014397161
0.0011730808
0.0011715321
0.0013647943
0.0018236254
0.0023610177
0.0026433825
0.0025900659
0.0022934311
0.0018935755
0.0015957512
0.0014380789
0.0011936622
0.00091689235
0.0011012206
0.0023668888
0.00081273175
0.00080197456
0.00090605386
0.0011471375
0.0015762546
0.0021108436
0.0025430455
0.0028036489
0.0025928431
0.0017556626
0.0009952098
0.00058905402
0.00042787593
0.00041859435
0.00048126638
0.00078658435
0.0014637271
0.0022051509
0.0025345769
0.0024097719
0.0020742141
0.0017396308
0.001557691
0.0013156325
0.00096599864
0.0009898981
0.0013924328
0.00075024731
0.00078578757
0.00093961876
0.0012873305
0.0017801262
0.0023035339
0.0027045599
0.0028122488
0.0020616356
0.0010332731
0.0004954988
0.00027267715
0.00019679224
0.00020054757
0.00021600799
0.00033854674
0.00077847535
0.0016056517
0.0022975249
0.0024183631
0.0021732559
0.0018495659
0.0016523298
0.0014087398
0.0010219296
0.00088209025
0.003791386
0.00087387321
0.00072044768
0.00078012648
0.00099598383
0.0014204829
0.0019310083
0.0024406141
0.002814837
0.0026325629
0.0015787967
0.0007133742
0.00033684587
0.00015556101
0.00011935941
8.7246815e-05
0.0001173536
0.00019713742
0.00045210131
0.0011582248
0.0020129823
0.0023529735
0.0021939925
0.0019014709
0.0017131005
0.0014642471
0.0010567257
0.00084814655
0.0017810142
0.00082169122
0.00069870078
0.00078220338
0.0010542711
0.0015208187
0.0020269429
0.0025534557
0.0028170635
0.0024009753
0.0013416682
0.00062001144
0.00029313095
0.00016554807
0.00054554434
7.2996497e-05
8.3858983e-05
0.00014135856
0.00031651042
0.00090207798
0.0017896712
0.0022636155
0.0021511456
0.0019146635
0.0017480419
0.001470697
0.0010599187
0.00082999385
0.0016504296
0.00081911675
0.00068348934
0.0007807675
0.0010895904
0.0015478006
0.0020583666
0.0025935784
0.0027133242
0.0022252522
0.0012806569
0.00060707339
0.00029604567
0.00018809219
0.00015818046
0.00011168138
0.00010837841
0.00016130365
0.00033661731
0.00086998091
0.0017577699
0.0022301214
0.0021139861
0.0019122372
0.0017303177
0.0014126187
0.0010258161
0.00080866264
0.0018197173
0.00086740875
0.00067068827
0.00076604841
0.0010763694
0.0014859483
0.0020212066
0.0025120465
0.0025723505
0.0022209525
0.0014192753
0.00073103542
0.00039147301
0.00023398144
0.000145538
0.00013039958
0.00016625929
0.00024182683
0.0004863234
0.0010898825
0.0019069252
0.0022230139
0.0020892577
0.001905848
0.0016603876
0.0013295891
0.00097730504
0.00080383604
0.0055829356
0.0013752868
0.00068379387
0.00074352542
0.0010199403
0.001368465
0.0018866947
0.0023417238
0.0024754933
0.0023055589
0.001710637
0.0010040672
0.00056589317
0.00035541636
0.00023917694
0.00022058588
0.00027748261
0.00042281012
0.00078985365
0.0014517942
0.0020711382
0.0021944302
0.0020775529
0.0018685804
0.0015630265
0.0012334788
0.00092145819
0.0008986543
0.004035227
0.0028788201
0.00071413848
0.00071927831
0.00093445952
0.0012209946
0.0016780118
0.0021348948
0.0023677184
0.002364957
0.0020653267
0.0014726038
0.00093376439
0.00060848852
0.00044414116
0.00044861413
0.00056877408
0.00081284207
0.0012562474
0.0018168106
0.0021522073
0.0021613091
0.0020490412
0.0017743654
0.0014382822
0.0011215528
0.00086707338
0.00088762838
0.00082481631
0.00069776418
0.00083713821
0.0010764231
0.0014382611
0.0018823083
0.0021949598
0.0023347644
0.0022935786
0.0020042734
0.0015535903
0.0011511625
0.00092374131
0.00093609129
0.0010995157
0.0013722369
0.0017402041
0.0020542533
0.0021645589
0.0021329249
0.0019553524
0.0016168188
0.0012979529
0.0010020242
0.0008478249
0.0014889596
0.001123688
0.00070439491
0.00075913355
0.00093731849
0.0012053576
0.0015848502
0.0019258027
0.0021809264
0.0023061796
0.0022798223
0.0020967658
0.0018378571
0.0016263333
0.0015876054
0.0017033583
0.0018715458
0.002043365
0.002140117
0.0021493429
0.0020420507
0.001758998
0.0014336379
0.0011430938
0.00091175737
0.001021241
0.0021322685
0.00078815684
0.00071481782
0.00082164053
0.0010067867
0.0012821956
0.0015825861
0.0018671508
0.0021195002
0.0022591885
0.0022702111
0.0021760224
0.0020617473
0.0020139015
0.002049734
0.0020975719
0.0021350233
0.0021365678
0.002049914
0.001823917
0.0015376324
0.00125605
0.00099431409
0.00087882615
0.0013279962
0.0013803971
0.0007488762
0.00074423842
0.00085200261
0.0010358611
0.0012444899
0.0014627773
0.0017300166
0.0019640747
0.0021292782
0.002200279
0.0021900156
0.002156075
0.0021560394
0.0021547183
0.0021235429
0.0020276164
0.0018431476
0.0016008719
0.0013243117
0.0010473425
0.00087295097
0.00089909923
0.0038461934
0.0011568786
0.00075722641
0.0007478197
0.00085397558
0.00099079451
0.0011245341
0.001289691
0.0015006015
0.0017003971
0.0018612978
0.0019792944
0.0020476159
0.0020591556
0.0020171812
0.0019109886
0.0017440746
0.0015342123
0.0012834431
0.0010327177
0.00088120219
0.0010966987
0.0024212954
0.0010244021
0.00072337815
0.00075069825
0.00081930243
0.00089678296
0.00098560616
0.0011040143
0.0012422957
0.0013839636
0.0015118259
0.0016046329
0.0016280689
0.0015827161
0.0014747107
0.0013142453
0.0011217848
0.0009352034
0.0008223301
0.00086010583
0.0013827612
0.0014625058
0.00078897432
0.00074061629
0.00076013144
0.00080088811
0.00084570026
0.00090953409
0.00098595345
0.0010610847
0.0011207046
0.0011297909
0.0010828001
0.00099997675
0.00090154065
0.0008257391
0.00082735783
0.0010821321
0.0021725811
0.0026701157
0.00098487843
0.00070945014
0.00071552196
0.00072755981
0.00074189198
0.00075270895
0.00076203762
0.00077085008
0.00077540621
0.00076823808
0.00075141322
0.00074679296
0.00078198504
0.0011301387
0.0033809732
0.003380861
0.0010560158
0.00075460462
0.00074242694
0.00069459778
0.00070741646
0.00072147017
0.00073697608
0.0008025826
0.00086793831
0.0011321526
0.0020323999
0.0030856978
0.0018953107
0.0015813658
0.0014482849
0.0017159324
0.0037013038
0.0028784567
0.0011904769
0.00074880092
0.00069738088
0.00073846639
0.00086342197
0.0011852584
0.0014345099
0.0026003653
0.0010834032
0.00061900771
0.00057804164
0.00055872576
0.00054550682
0.00053710011
0.00053202091
0.00053590399
0.00055466346
0.00063110805
0.00085864785
0.00098204325
0.0027311028
0.0043169433
0.002199228
0.00070570118
0.00064952692
0.00063700996
0.00064052123
0.0006462865
0.00064809743
0.00063816725
0.00061457454
0.00058025178
0.00055026125
0.00054222097
0.00054122271
0.00059435265
0.00070051018
0.0013873596
0.0012689679
0.0018811384
0.00082285322
0.00071403354
0.0006885842
0.00068708137
0.00069689941
0.00071317378
0.00073131525
0.00074273242
0.00073891455
0.00070892524
0.00065503046
0.00059689759
0.00055131297
0.00054822063
0.00056790255
0.00065981203
0.00085656823
0.0015291015
0.0020417025
0.00084772444
0.00070624494
0.00067410848
0.00066645868
0.00067430792
0.00069741292
0.00073004008
0.00076333587
0.00079285376
0.00081692796
0.00082690219
0.00080462195
0.00074329497
0.00065020109
0.00058151074
0.00056239796
0.00057462666
0.0006223881
0.00078864189
0.0013233859
0.0030238627
0.0009024967
0.00068903582
0.00063765062
0.00061870745
0.00062078121
0.00064685474
0.00068653758
0.00072280964
0.00074957107
0.00077127075
0.00079617446
0.00082753101
0.00085215189
0.0008505841
0.00079404699
0.00069200446
0.00060481434
0.00057650771
0.00058786607
0.00062596454
0.00075863103
0.0013026893
0.0013635499
0.00071330646
0.00060673966
0.00057666287
0.00057942336
0.00060897357
0.00066894848
0.00071967563
0.00074373147
0.00074581057
0.00074244696
0.00074381052
0.00076046701
0.00079779934
0.00084688266
0.00085734603
0.00080978425
0.00070511837
0.00061558541
0.00059168992
0.00060110529
0.00063452734
0.00068108072
0.0017237346
0.0016461295
0.00073315051
0.00059016944
0.00054721517
0.00054389088
0.00057874101
0.00066565709
0.00074108257
0.0007579064
0.00072523324
0.00065455132
0.00058428343
0.00054690387
0.00055192024
0.00060024522
0.00068907577
0.00078855572
0.00083135134
0.00078967022
0.0006920603
0.00061975255
0.0006060608
0.00060843368
0.00060899661
0.00079127613
0.00099326154
0.00060794348
0.00052634941
0.00051218702
0.00054472951
0.00064866937
0.00075534871
0.0007749191
0.00069782964
0.00054964439
0.00040202005
0.00029697865
0.00024544186
0.00025324111
0.00031626184
0.00043075455
0.00058700292
0.00074020499
0.00079299822
0.00075031875
0.00066986201
0.00062555087
0.0006129243
0.00058908406
0.00060209062
0.0014593294
0.0050430744
0.00086091079
0.00051759765
0.00048773377
0.00050674443
0.00060264578
0.00074091075
0.00079697853
0.00070991552
0.00050779378
0.00030282539
0.00015683649
8.1184147e-05
5.3322573e-05
5.9374163e-05
9.9662773e-05
0.00019499435
0.00035509102
0.0005619578
0.00072813761
0.00075968025
0.00071187733
0.00065912047
0.00063085799
0.00059332731
0.00055876627
0.00073826717
0.0018696114
0.00061580465
0.00048349428
0.00047740133
0.00053722175
0.00068043754
0.00079543706
0.00076618792
0.00055877693
0.00030547624
0.00012521393
3.7918873e-05
1.7112584e-05
1.5007108e-05
1.48385e-05
1.8522347e-05
5.8454365e-05
0.00017750558
0.00038154926
0.00060888174
0.00073201893
0.00072836643
0.00069166015
0.00065645512
0.00060702681
0.00053638556
0.00060257668
0.003076283
0.0005182859
0.00045809126
0.0004781703
0.00058436744
0.00073758417
0.00080921062
0.00068639538
0.00041171859
0.00017074856
4.7374057e-05
1.2811278e-05
1.3204969e-05
1.4062018e-05
1.3082566e-05
1.2507459e-05
1.2813579e-05
7.5237959e-05
0.00024816601
0.00049157741
0.00067906153
0.00072400031
0.00071175358
0.0006818641
0.00062369712
0.0005308019
0.00053110981
0.0037124987
0.0010201354
0.00047680387
0.00044918272
0.00049233049
0.00062183703
0.00076525554
0.00079631471
0.00060673474
0.00031597615
0.00010689885
2.5795188e-05
1.2229023e-05
1.4988786e-05
3.7179754e-05
2.8963161e-05
1.3744931e-05
1.1748954e-05
3.3736505e-05
0.00016960895
0.0004080452
0.00062728955
0.0007149359
0.00072347863
0.0007025022
0.00063780838
0.00052736588
0.00048962498
0.0017636247
0.00073137411
0.00044432818
0.00044809054
0.00050482897
0.00063681699
0.0007692525
0.00077185646
0.00056360835
0.00027953612
8.9576265e-05
2.2420026e-05
1.1901526e-05
1.863538e-05
0.00024575453
4.6795011e-05
1.2468372e-05
1.125521e-05
2.7254123e-05
0.00014175147
0.00037016641
0.00059581015
0.00070807895
0.00073314877
0.00071732068
0.00064006929
0.00051255223
0.00050897764
0.0017153538
0.00069093643
0.00043474407
0.00044940484
0.00050593088
0.00063196458
0.00075817923
0.00075653647
0.00056640912
0.00029627086
0.00010463709
2.5926853e-05
1.1994786e-05
1.4511629e-05
3.7228428e-05
1.6151361e-05
1.100388e-05
1.0991724e-05
3.7010209e-05
0.00015735272
0.00037623514
0.00059061587
0.00071071324
0.00074450135
0.00072311732
0.00062757359
0.00049851256
0.00047055664
0.0018168627
0.00067344055
0.00043195115
0.00044681346
0.00049446795
0.0006098222
0.00073440734
0.00075160764
0.00060835296
0.00035861529
0.00015315448
4.9506163e-05
1.4637076e-05
1.0309037e-05
1.0067506e-05
1.0197006e-05
1.0377033e-05
1.661562e-05
7.1798084e-05
0.00021169783
0.0004188669
0.00061255013
0.00072613786
0.00075515623
0.00071432862
0.00059882804
0.00047351988
0.00042826432
0.0025319059
0.0008923924
0.00043783455
0.00044238263
0.00047531766
0.00057268492
0.00069712113
0.00075120068
0.00066904114
0.00045955009
0.00024290342
0.00010854277
4.4803936e-05
2.0500363e-05
1.4203084e-05
1.4231599e-05
2.0770019e-05
5.6857025e-05
0.00014742331
0.00030024413
0.00049133509
0.00065853665
0.00075131491
0.00075672165
0.0006834729
0.00054742868
0.0004425794
0.00049011249
0.0012747161
0.0004532179
0.00043882799
0.00045461798
0.0005256841
0.00064510661
0.00073879269
0.00072233749
0.00058519108
0.00038088257
0.00021787846
0.00012443351
7.682059e-05
5.7046793e-05
5.9967235e-05
8.8248031e-05
0.00015403959
0.00026515473
0.00041908899
0.00058674451
0.00071699531
0.00076723542
0.00073185394
0.00062155505
0.00049612897
0.00048134551
0.00062158999
0.00048732323
0.00043991637
0.00043807867
0.00047635548
0.00057492895
0.00069214578
0.0007432015
0.0006981628
0.0005522152
0.00038624978
0.00026795644
0.00020329736
0.00017687967
0.00018342097
0.00022505965
0.00030441962
0.00042056539
0.00055962641
0.00068797895
0.0007585803
0.00075375313
0.00067214673
0.00055033254
0.0004712941
0.00053674293
0.00092950767
0.00054219567
0.00045857022
0.00043052598
0.00043587529
0.00049960636
0.00061359501
0.00071301263
0.00074779236
0.00070287478
0.00058855061
0.00047013628
0.00039349728
0.00036217382
0.00037019602
0.00041483626
0.00049152946
0.00059032936
0.00068794904
0.00074723769
0.0007557529
0.00069664634
0.00058868413
0.0004842336
0.00045019918
0.00063818589
0.0031543655
0.0020220086
0.00051884391
0.00045474407
0.00041739775
0.00043460913
0.00051689244
0.00062731929
0.00071890448
0.00075776391
0.00074203239
0.00067762187
0.00061257409
0.00057721754
0.00057906867
0.00061142774
0.00066270937
0.00071668831
0.00074875364
0.00074746846
0.00069769055
0.00059902868
0.00049490022
0.00044099759
0.00077915909
0.0013893532
0.00077858935
0.00055130031
0.0004275821
0.00040311045
0.00043133402
0.00051539694
0.00061339429
0.00070127415
0.00075606779
0.00077268354
0.00076525406
0.00074717332
0.00073878821
0.0007427278
0.00075123253
0.00075320667
0.00072869998
0.00067363603
0.00058471676
0.00049066634
0.00044035503
0.00049733522
0.00055371056
0.00094513016
0.0005319586
0.00041132956
0.00038824114
0.00041928853
0.00048740413
0.00057015847
0.00064717601
0.00070430252
0.0007394616
0.00075445644
0.00075419692
0.00074248263
0.0007194701
0.00068082084
0.00062029497
0.00054488978
0.00046974157
0.00043075645
0.00047744349
0.00053818288
0.0013892527
0.00093609002
0.00053747915
0.00041009086
0.00037569908
0.00039230252
0.00043627509
0.00049856845
0.00055222533
0.00059336852
0.00061744618
0.00062305137
0.00061056769
0.00058017019
0.00053491367
0.00048159724
0.00043481213
0.00041457765
0.00047292596
0.00052845329
0.0012320235
0.0011393133
0.00083830226
0.00039783652
0.00036648169
0.00035982442
0.0003779365
0.00040866341
0.00043795111
0.00045676232
0.00046239193
0.00045347492
0.00043334147
0.00040969787
0.00039486641
0.00039789987
0.00044131403
0.000562137
0.0012408111
0.0015146121
0.0006277631
0.00049912852
0.00042306405
0.00033939643
0.00033491592
0.00033986723
0.00034534612
0.00034802094
0.00035014289
0.00035801248
0.00036896775
0.00039861621
0.00042829068
0.00068403273
0.0012392323
0.0016091098
0.00052939155
0.00039977519
0.00032236888
0.0003262058
0.00033693658
0.00035445934
0.00038828936
0.00045117117
0.00072440456
0.0020153975
0.0040855205
0.0016401639
0.0014469497
0.0013721456
0.0017287793
0.003482901
0.001798241
0.0012512922
0.0011725226
0.001250323
0.0013965691
0.0016772135
0.0021238309
0.0033874467
0.0012279125
0.00078525243
0.00074774133
0.00073842238
0.00073669028
0.00074862683
0.00077670171
0.00083050974
0.00090354673
0.001026276
0.0012785566
0.0013428726
0.0031868495
0.0047244189
0.0024875151
0.00082824193
0.00078888444
0.00079216741
0.00080325529
0.00080751532
0.00080196067
0.00078440764
0.00075920202
0.0007408482
0.0007417962
0.00077152849
0.00084762103
0.00092966936
0.0010314577
0.001772559
0.001644172
0.0022031755
0.0010503139
0.00090672155
0.00088137076
0.00088094273
0.00087885162
0.00087254278
0.00086380244
0.00085053961
0.00082798955
0.00079313995
0.0007527983
0.00072386178
0.00072225826
0.0007737015
0.00081326635
0.00099083172
0.0012099888
0.0019400737
0.0024297213
0.0011303098
0.00093910068
0.00090136826
0.0008879407
0.00086906837
0.00085058424
0.00083988824
0.00083854279
0.00084331363
0.00084736461
0.00084230809
0.00081896256
0.0007775177
0.00073140235
0.0007216824
0.0007464543
0.00079090057
0.00086766065
0.0010851616
0.0017036398
0.0036261218
0.0012295001
0.00096176434
0.00088963516
0.00084795068
0.00080342048
0.00076607018
0.00074993322
0.00074676959
0.00074991509
0.00075692407
0.00077198988
0.00079593343
0.00082064898
0.00082026686
0.00078748644
0.00074358295
0.00072952015
0.00074512882
0.0007811741
0.00083368978
0.0010199171
0.0016017855
0.0017019412
0.0010501683
0.00087828283
0.00080136489
0.00073734993
0.00069658234
0.00069097876
0.00069425059
0.00068893829
0.00067158937
0.00064858894
0.00063943852
0.00065590229
0.00070014296
0.00075525764
0.00079408793
0.00078076951
0.00074905959
0.00073980634
0.0007635907
0.00078267606
0.00082429013
0.00083445508
0.0021260328
0.0019115954
0.0010673384
0.00087758458
0.00077964976
0.0006950838
0.00065196905
0.00066044607
0.00067585775
0.00066226448
0.00060584766
0.0005355775
0.00047683443
0.00044703902
0.00045244286
0.00049821369
0.00058364303
0.00068585846
0.00075806873
0.00076502474
0.00074991792
0.00076084807
0.000782437
0.00078471596
0.00075047148
0.00096904679
0.0013274553
0.00096446689
0.00079720416
0.00067710689
0.00062392463
0.00063954921
0.00067469941
0.00066146716
0.00057084982
0.00044693048
0.00033234682
0.00025164694
0.00021145709
0.00021559401
0.00026338639
0.00035860603
0.00049790941
0.00064401866
0.0007364423
0.00075531031
0.00076185975
0.00078812005
0.00079123032
0.00073591522
0.00072771528
0.0016434742
0.0063693462
0.0012652219
0.00086469864
0.00068886705
0.00060790113
0.00061877604
0.00067077722
0.00068161447
0.00058080874
0.00041597809
0.00025821603
0.00014475452
8.0463884e-05
5.4447037e-05
5.8811831e-05
9.2246244e-05
0.00016945768
0.00030421573
0.00048554603
0.00064911935
0.00073628025
0.00076216415
0.00079235662
0.00080526029
0.00074897146
0.00067184508
0.0008888501
0.0025923177
0.0010208069
0.00076096747
0.00062368603
0.00059708509
0.00064817266
0.00069961408
0.00063556156
0.00046001665
0.00026542592
0.00012363982
4.4663343e-05
1.7042045e-05
1.3661052e-05
1.3600365e-05
2.0403644e-05
5.7212016e-05
0.00016006261
0.00033675808
0.00054049206
0.00068667621
0.00075307816
0.00079502805
0.00081748767
0.00076697257
0.00064620076
0.00071735942
0.0040354051
0.00089744384
0.00068547495
0.00059053993
0.0006121687
0.00067840256
0.00069432437
0.00056765502
0.0003539039
0.00016820998
5.7722777e-05
1.433106e-05
1.0526525e-05
1.1063669e-05
1.039263e-05
9.9642276e-06
1.48815e-05
7.419786e-05
0.0002282748
0.00044381504
0.00062997713
0.00073622
0.00079601811
0.0008269016
0.00078053827
0.00063879806
0.00061764186
0.0036101829
0.001534802
0.00081373758
0.00063195124
0.0005856249
0.00063480692
0.00069433672
0.00067180785
0.00051151818
0.00029085381
0.00012172355
3.3117225e-05
9.6718997e-06
1.1113148e-05
3.4485947e-05
2.7366665e-05
1.1748828e-05
1.0744844e-05
3.7242732e-05
0.00016476187
0.00037829531
0.00058546688
0.000718029
0.00079719494
0.00083333009
0.00078612098
0.00063160544
0.0005607196
0.0018442764
0.0012016237
0.0007346802
0.00060537434
0.00059342397
0.00064858655
0.00069528394
0.00065755884
0.00048860028
0.00027226007
0.00011011318
2.717684e-05
9.5345768e-06
1.4670555e-05
0.00025704067
5.0265996e-05
1.0786808e-05
1.0289466e-05
3.0674771e-05
0.00014456815
0.00035217107
0.00056405419
0.00070946292
0.0008029771
0.00083692828
0.00077600664
0.00060964162
0.00059028904
0.0018151091
0.0011888438
0.00068320371
0.00060129668
0.00059964812
0.00065017295
0.00069033279
0.00065747211
0.00049969879
0.00029228367
0.00012750158
3.6585749e-05
9.8146767e-06
1.0825227e-05
3.6355658e-05
1.4589765e-05
9.9019721e-06
1.0057285e-05
4.275551e-05
0.0001639726
0.00036496377
0.00056924357
0.00071829584
0.00081457804
0.0008333063
0.00074502217
0.00057874337
0.00053052304
0.0018994397
0.0011538124
0.00064887216
0.00059620583
0.00059892434
0.00064196279
0.00068212721
0.00067074443
0.00053972882
0.00034693079
0.00017628077
6.9088413e-05
1.9383904e-05
8.4175637e-06
8.4822917e-06
8.7580763e-06
8.8951763e-06
2.0491136e-05
8.3106211e-05
0.00022028008
0.00041217488
0.00060201917
0.00074510703
0.00082707588
0.00081453788
0.0006941209
0.00053798881
0.00047972933
0.0023133726
0.0015334751
0.00063999783
0.00058989526
0.00059160533
0.00062625007
0.00066885601
0.00068650865
0.00059728975
0.00043122135
0.00025996161
0.0001367781
6.2701825e-05
2.7181655e-05
1.6299972e-05
1.6003017e-05
2.779987e-05
7.0827807e-05
0.00016432627
0.0003100294
0.00048922637
0.0006592742
0.00078133558
0.00082753077
0.0007688084
0.00061682602
0.00050149843
0.00061550943
0.0019762775
0.00064360261
0.00058133425
0.0005791782
0.0006024471
0.00064550898
0.00068808651
0.00065712062
0.0005348317
0.00037804189
0.00024558732
0.00015597924
0.00010160681
7.6659249e-05
7.9203e-05
0.0001104627
0.00017752526
0.00028493624
0.00042922905
0.00058928423
0.00072819445
0.00080807284
0.00079718145
0.0006913248
0.00055204312
0.00056611226
0.00073312562
0.00067992236
0.00057670083
0.00056569181
0.00057299912
0.00060985683
0.00066986126
0.00069597224
0.00063578907
0.00051721101
0.00039288111
0.00029793648
0.00023884757
0.00021155448
0.00021641535
0.0002557781
0.00033031678
0.00043771768
0.00056682709
0.00069279309
0.0007810085
0.00079783203
0.00073099957
0.00060643326
0.00051849993
0.00060722687
0.00093533411
0.00069082691
0.00059228004
0.00056222419
0.00054258648
0.00056391282
0.00062601931
0.00068835686
0.00070209094
0.00064485173
0.00055554221
0.00047155572
0.00041513633
0.00039110707
0.00039900962
0.0004390353
0.00050787999
0.00059771473
0.00069176202
0.00076448088
0.00078534544
0.00073781946
0.00063005627
0.00051458642
0.00049594301
0.00074359711
0.0029399483
0.0020362009
0.00066526104
0.00060014999
0.00052415498
0.00051489493
0.00056162684
0.00063884268
0.0006981713
0.00071579774
0.0006841321
0.00063605914
0.00059485969
0.00057672207
0.00058427788
0.00061524396
0.0006632414
0.00071730578
0.00075938943
0.00076567166
0.00072165405
0.00062763261
0.00052317975
0.0005200259
0.0009147303
0.0014611233
0.00092797174
0.00075668071
0.00055675436
0.00048379993
0.00049118924
0.00055879143
0.00063468743
0.00069481946
0.00072438741
0.00072581114
0.00071360841
0.00070668749
0.00071039991
0.00072442779
0.00074231445
0.00075074042
0.00073689835
0.00069037161
0.00060865843
0.00051691559
0.00048138369
0.00061359372
0.00066327327
0.0012057892
0.0007419049
0.00052370046
0.00045447545
0.00047168109
0.00053728795
0.00060696108
0.00066647324
0.00070207546
0.00071983486
0.00072696689
0.0007287896
0.00072723823
0.00071581449
0.00068780338
0.00063771999
0.00056733679
0.00049808404
0.00047033065
0.00057406548
0.00066553574
0.0016185838
0.001246415
0.00075643687
0.00055617412
0.00042372636
0.00044725647
0.00049213402
0.00055260025
0.00060310937
0.00063350189
0.00064791957
0.00064872191
0.00063659695
0.00060989738
0.0005691273
0.00051926933
0.00047677105
0.00047560966
0.00056772703
0.00063876818
0.0014770504
0.0015124014
0.0011054179
0.00051314949
0.00043882638
0.00042413127
0.0004303008
0.00047659141
0.00050964269
0.00052704501
0.00052951743
0.00051742712
0.00049423283
0.00046788777
0.00045058198
0.00046233874
0.00052702065
0.000702468
0.0015326802
0.0019277085
0.00082747836
0.00064332516
0.00055732895
0.00041178331
0.00039446198
0.00040306664
0.00041331637
0.00041730671
0.00041671691
0.00041939238
0.00043559943
0.00047205886
0.0005026923
0.00084552613
0.0014928376
0.0020085815
0.00069006838
0.0005220624
0.00038857319
0.00038255839
0.00038896609
0.00040798862
0.00045708265
0.00053648511
0.00082873647
0.0020965649
0.0044210455
0.0017998657
0.0015907916
0.0015024078
0.0016466155
0.0060471477
0.0031559675
0.0021228669
0.0019077059
0.0019031069
0.0019779141
0.0022158729
0.0026410574
0.0040002208
0.0016005553
0.0012281389
0.0011719182
0.0011620725
0.0011610097
0.0011917147
0.0012518389
0.0013366846
0.001422825
0.00150933
0.0016948782
0.0016994004
0.0035717496
0.0053212673
0.0027699299
0.0010785803
0.0010458427
0.001058627
0.0010690076
0.0010664329
0.0010520638
0.0010324697
0.0010227355
0.0010442891
0.0011067921
0.0011926744
0.0012833944
0.0013488562
0.0013821046
0.002042831
0.0021556491
0.0024414858
0.0012216805
0.0011239774
0.0011298873
0.0011388427
0.0011292606
0.0011047191
0.0010733281
0.0010373656
0.00099850462
0.00096370488
0.00095146456
0.00098212959
0.0010519443
0.0011574258
0.0012034201
0.0013176453
0.0014893067
0.002321062
0.0028351203
0.0013425577
0.0012022485
0.0012054986
0.0012026331
0.0011686024
0.0011190532
0.0010711669
0.001034718
0.0010077875
0.00098727673
0.00096492436
0.00093646549
0.00091580277
0.00092620944
0.00099675726
0.0010924889
0.0011493166
0.0011969368
0.00134478
0.0020396572
0.0044007903
0.0014981392
0.0012815073
0.001250034
0.001205008
0.0011212654
0.0010278639
0.00095073058
0.00089696708
0.00086403923
0.00084877239
0.00085314975
0.00087120239
0.00088974158
0.00089417442
0.00088858503
0.00090697466
0.000982542
0.0010708217
0.00112697
0.0011288895
0.0012469969
0.0018869306
0.0019333096
0.0013929985
0.0012713848
0.001176936
0.0010471363
0.0009227533
0.00083314754
0.00077668453
0.00073491443
0.00070029604
0.0006747751
0.00066767103
0.00068810695
0.00073652791
0.00079532366
0.00083972385
0.00086339435
0.00090694627
0.00099408037
0.0010861892
0.0011011539
0.0010778893
0.000976053
0.0025071872
0.0022155313
0.0014102501
0.0012813675
0.0011673768
0.00099987611
0.00085276648
0.00076587024
0.00071930103
0.00067275284
0.00061068229
0.0005442452
0.00049156857
0.00046621045
0.00047456908
0.00052303622
0.00061038107
0.00071357731
0.00079567034
0.00085262419
0.00092832282
0.0010349233
0.00109751
0.001062652
0.00092367323
0.0011287982
0.0016568267
0.0013731058
0.001212676
0.0010041343
0.00082693824
0.00074016135
0.00070837566
0.00066228506
0.00057341013
0.00046261115
0.00036096021
0.00028837466
0.00025271629
0.00025698346
0.00030220499
0.00039390589
0.00052866741
0.00067207747
0.00078280312
0.00087103412
0.00098111282
0.0010803395
0.0010778551
0.00093387133
0.00082991121
0.0018147325
0.0072155707
0.0016617046
0.0013170734
0.0010700691
0.00084723604
0.00073690138
0.0007150422
0.00068413921
0.00058532859
0.00044069892
0.0002992416
0.00019104769
0.00012361874
9.2826879e-05
9.5270121e-05
0.00013141501
0.00020998393
0.00034338629
0.00051894148
0.00068525245
0.0008121476
0.00093195428
0.0010534793
0.0010868957
0.00096079331
0.00077898491
0.00099342595
0.0031369298
0.0014885864
0.0012246721
0.00093567077
0.00075934966
0.00072108849
0.00071612255
0.00064031327
0.00048596876
0.00031416492
0.00017463979
8.2764015e-05
3.7404579e-05
2.3095981e-05
2.4009011e-05
3.9981494e-05
9.0966333e-05
0.00020114024
0.00037770357
0.00057885954
0.00074800939
0.00088878351
0.0010257083
0.0010853774
0.0009817391
0.00075589114
0.00080108259
0.0047658315
0.0014182063
0.0011108704
0.00082893615
0.00073098953
0.00073270807
0.00070680481
0.00058490144
0.00040141434
0.00022817401
0.00010063263
3.1230437e-05
1.3434889e-05
1.2279263e-05
1.1473511e-05
1.1885208e-05
3.234368e-05
0.00011130267
0.00027331331
0.00048831449
0.00068899109
0.00085338398
0.0010031128
0.0010775443
0.00098915147
0.00074923226
0.00069196465
0.0037478932
0.0020960505
0.0013451961
0.0009991605
0.00077423821
0.00073948501
0.00074404114
0.00069089881
0.00054374842
0.0003521602
0.00018239888
6.2277759e-05
1.4670033e-05
1.186695e-05
3.3130955e-05
2.6790689e-05
1.1918486e-05
1.5334944e-05
6.6771588e-05
0.00021243588
0.00042963739
0.00064799492
0.00083198107
0.00098937111
0.0010662094
0.00098053609
0.00073336211
0.00062861671
0.0018898698