/*--------------------------------*- C++ -*----------------------------------*\
| =========                 |                                                 |
| \\      /  F ield         | OpenFOAM: The Open Source CFD Toolbox           |
|  \\    /   O peration     | Version:  2406                                  |
|   \\  /    A nd           | Website:  www.openfoam.com                      |
|    \\/     M anipulation  |                                                 |
\*---------------------------------------------------------------------------*/
FoamFile
{
    version     2.0;
    format      ascii;
    arch        "LSB;label=32;scalar=64";
    class       volScalarField;
    location    "950";
    object      k;
}
// * * * * * * * * * * * * * * * * * * * * * * * * * * * * * * * * * * * * * //

dimensions      [0 2 -2 0 0 0 0];

internalField   nonuniform List<scalar> 
150387
(
0.00051063859
0.00034686813
0.00033769876
0.00033756329
0.0003468626
0.00038627422
0.00043514071
0.00055793872
0.00052167598
0.00033314591
0.00032403093
0.00033153047
0.00034415136
0.00035295866
0.00035708641
0.00035841836
0.00036137114
0.00036698555
0.00037241096
0.00037884076
0.00042042912
0.00031446398
0.00032251638
0.00036639347
0.00043009466
0.00047913551
0.00050224972
0.00050438021
0.00049382171
0.00046955185
0.00043189765
0.0004067481
0.00040178747
0.00040157765
0.00039913646
0.00038461058
0.0004019223
0.00053882271
0.0003431736
0.00037730148
0.00047188819
0.00055531852
0.00061247375
0.0006482794
0.00066588383
0.00066668739
0.0006526768
0.00061767259
0.00056880757
0.00050753728
0.00045345331
0.00043852337
0.00043616376
0.00042703094
0.00039322786
0.00037584288
0.00048685796
0.00033862043
0.00043090809
0.00054349773
0.00061844514
0.0006647723
0.0006951903
0.00071869705
0.00073579171
0.00074497329
0.00074672717
0.00073276079
0.00069141237
0.00063331073
0.00055976316
0.00049078512
0.0004742482
0.0004707594
0.00045031286
0.00039478139
0.00034239695
0.00037164583
0.00045001757
0.00054545854
0.0005993987
0.00062953912
0.00064892133
0.00066382187
0.00067323812
0.00067800037
0.00068252659
0.00069463782
0.00071534895
0.00072234689
0.00070641834
0.00066401612
0.00058179074
0.00052055069
0.00050979129
0.00050394525
0.0004665845
0.00036841707
0.00036293573
0.00037868833
0.00043396436
0.00051238368
0.00055229131
0.00057572216
0.00059789979
0.00061591049
0.00062177025
0.00061661125
0.00060682374
0.00059949844
0.00059948071
0.00060832536
0.00063192883
0.00066593123
0.00067914524
0.0006606926
0.00058889555
0.00055004505
0.00054471764
0.00053517536
0.0004401656
0.0003580157
0.00038844064
0.00047213046
0.00042110984
0.00046827436
0.00050202393
0.00052754741
0.000556643
0.00058943449
0.00060421042
0.00059458042
0.00057442681
0.00055818747
0.00055072996
0.00055363177
0.00055835776
0.00056308053
0.00057958213
0.00060650367
0.00063414016
0.0006276104
0.00059242026
0.00057900652
0.00057968805
0.00053591359
0.00039506541
0.00033788066
0.0004111083
0.00043048931
0.00045768921
0.00048435049
0.00051965558
0.00056904835
0.00060923033
0.00059956585
0.00057170224
0.00055330957
0.00053520702
0.00051062925
0.00049317303
0.00050029312
0.00052018223
0.00053919133
0.00055641871
0.00057813494
0.00059903954
0.00060174528
0.00060206402
0.0006110036
0.00060376169
0.00047468302
0.00034660158
0.00042116565
0.00039681428
0.00041710509
0.00044332099
0.00048030178
0.00053880494
0.00061441899
0.00061872507
0.00058023782
0.00055655644
0.00051643694
0.00043375477
0.00034161885
0.00028666739
0.00028848385
0.00033111682
0.00041444778
0.00049554494
0.00053823512
0.00055904291
0.00057961668
0.00060372276
0.00063001545
0.00064495198
0.00055662073
0.00037384257
0.00036082643
0.00051647591
0.00038214805
0.00040272375
0.00043707454
0.00049823408
0.00059251097
0.00063808252
0.00060235857
0.00056473628
0.00052113155
0.00039894761
0.00024842473
0.00016156939
0.00012981496
0.00013079858
0.00014372721
0.00020886851
0.00035177754
0.00047968353
0.00052719395
0.00054856753
0.00058993911
0.00063824537
0.00067067918
0.00061394004
0.0004205358
0.00034510037
0.00041352211
0.00036722247
0.00039264811
0.00044527688
0.00054339868
0.00063494956
0.0006381175
0.00058344175
0.00054734765
0.00044326262
0.00026067524
0.000145527
9.6614408e-05
7.7905037e-05
8.0744333e-05
8.3964016e-05
0.00010811225
0.00020437801
0.00038075767
0.00049191378
0.00052285833
0.00057010889
0.00064046073
0.00068831902
0.0006500692
0.00047131195
0.00033900776
0.00060255371
0.00037648644
0.00035465398
0.00039020048
0.00046897122
0.00058546648
0.00065344238
0.00063379331
0.00057037165
0.00051728203
0.00036522134
0.00019605625
0.00011432972
6.6294596e-05
5.665489e-05
4.7838949e-05
5.762057e-05
7.7485425e-05
0.00013317392
0.00029210964
0.0004504425
0.00050092524
0.00055175133
0.00064266519
0.0007031839
0.00067079318
0.00050456086
0.00034085556
0.00046207824
0.00035098273
0.000344067
0.000391503
0.00049507937
0.00061634124
0.00066032962
0.00063410816
0.00055466312
0.00048669745
0.0003209674
0.00017529153
0.00010372865
6.5733393e-05
0.0001269351
4.8725597e-05
4.7420816e-05
6.4126978e-05
0.00010542124
0.00024315553
0.00041495998
0.00048277505
0.00053990563
0.00064848584
0.00071418377
0.00067459579
0.00051328672
0.00034457141
0.00041489477
0.00034300243
0.0003343299
0.00038986325
0.00050960945
0.00062817474
0.0006631602
0.00063756766
0.00054208527
0.00046704253
0.00030935458
0.00017162505
0.00010351531
7.3410013e-05
7.4755644e-05
5.0385921e-05
5.5198111e-05
6.8424759e-05
0.00011006089
0.00023915383
0.00040457687
0.00047619404
0.00054094467
0.00065572568
0.00071292069
0.00065490356
0.00049629569
0.00034340397
0.00043497846
0.00034201207
0.00032589685
0.00038098468
0.00050731994
0.0006210288
0.00066976703
0.0006416089
0.00054204088
0.00047287323
0.00033687133
0.0001988922
0.00012514459
8.8100626e-05
6.4786529e-05
6.1017044e-05
7.0304339e-05
8.7824669e-05
0.00014830054
0.00028501549
0.00042125597
0.0004834703
0.0005593465
0.00066882262
0.00070063475
0.00062447304
0.00046171154
0.00034443619
0.0005301088
0.00037416847
0.00032029179
0.00036699085
0.00049022967
0.00060188728
0.00067390103
0.00065238858
0.00056017691
0.00049484906
0.0003919316
0.00025765972
0.00016596826
0.00011659821
8.8347464e-05
8.411005e-05
9.6744653e-05
0.00013202103
0.0002217185
0.00035134079
0.00044700125
0.00050460007
0.00059775737
0.00068239695
0.00068039004
0.00058594803
0.00041916703
0.00034187418
0.00059499927
0.0005039772
0.00031443513
0.00034844129
0.0004558514
0.00056742939
0.00065907045
0.000666497
0.00059279168
0.00052511497
0.00045659516
0.00034745459
0.00024697252
0.00017859438
0.00014078463
0.00014135452
0.00016798366
0.000225339
0.00031647532
0.00041176095
0.00047740683
0.00054244768
0.00064569541
0.000688756
0.00064866152
0.0005314276
0.0003856192
0.00033991388
0.0003126459
0.00032809874
0.00040665665
0.00051938342
0.00062112225
0.0006729731
0.00063216333
0.00056821127
0.00051216313
0.00044199035
0.00036032856
0.00029068576
0.00025084615
0.00025413366
0.00028514784
0.00033728163
0.00040235963
0.00046230443
0.00051853332
0.00060301198
0.00067967248
0.00067791788
0.00060308109
0.00046108218
0.0003655047
0.00034976349
0.00034947073
0.00030941774
0.00036400354
0.0004630831
0.00055992007
0.00065093957
0.00065677135
0.00062424486
0.00057095412
0.00051567277
0.00045546814
0.00040632351
0.00037661963
0.00037433242
0.00039498499
0.00042717621
0.00046738787
0.00051418392
0.00058343447
0.00066328724
0.00068661428
0.0006413857
0.00053373868
0.00040607953
0.00034743715
0.00043677898
0.00029555351
0.0003322529
0.00040635643
0.00048451773
0.00058585485
0.00063934544
0.00065386621
0.0006423263
0.00060258142
0.0005449021
0.00049194862
0.00046050028
0.00045430795
0.00046842107
0.00049403629
0.00053425794
0.00059385282
0.00065955848
0.00068831194
0.00066670964
0.00058201876
0.00044853389
0.00036343907
0.00033858411
0.00033851013
0.00031057187
0.00035490659
0.00042123293
0.00049686878
0.00056898176
0.00061037339
0.00065367368
0.00066518275
0.00065651877
0.00062864221
0.00059391413
0.00057518465
0.0005791105
0.00060464521
0.00064719444
0.00069123482
0.00071014508
0.00069124884
0.00061044589
0.00047725499
0.00037195027
0.00032002824
0.00043467865
0.00033847999
0.00030903228
0.00036904881
0.00042186228
0.0004759515
0.00052700401
0.00057592625
0.00062719643
0.00066949004
0.00069436057
0.00071256258
0.00072540194
0.00073088455
0.0007374129
0.00074136632
0.00072736024
0.00068340428
0.00059791421
0.00047404592
0.00036484019
0.00031861724
0.00035171016
0.00028835042
0.00032218006
0.00036493064
0.00040590254
0.00043559433
0.00047340977
0.00052522771
0.00057711352
0.00062498306
0.00066711804
0.00069814129
0.00070710854
0.00069616596
0.00066663466
0.00061094905
0.00052395233
0.00041311533
0.00033372898
0.00029806288
0.00030381196
0.00030952679
0.00031481649
0.0003524437
0.00037684077
0.00039312937
0.00041090052
0.00044385891
0.00048361356
0.00051891889
0.0005426667
0.00054129478
0.00051394188
0.00046654999
0.00040297343
0.0003483699
0.00031652053
0.00030507287
0.00035619158
0.00034264743
0.0003189883
0.00033332818
0.00034221788
0.00034937672
0.00035618684
0.00036435139
0.00037355317
0.00037744809
0.00036926401
0.00035144663
0.00033224103
0.00031392053
0.00029918098
0.00030641039
0.00040442581
0.00038327531
0.00033985281
0.00032061321
0.00032328957
0.00032070261
0.00031674864
0.00031429608
0.00031178084
0.00031304174
0.00031857762
0.00032944818
0.00042554526
0.00052471722
0.00045150662
0.00040658121
0.00039061825
0.00047229889
0.00055782788
0.00048442762
0.00048234532
0.00045761988
0.00043350861
0.00044835575
0.00048346859
0.00055198022
0.0006438822
0.00068333177
0.00043066586
0.00044554871
0.00047742236
0.00050667173
0.00052716438
0.00053093922
0.00052359138
0.00051561653
0.00052009568
0.00054243872
0.00055837245
0.00058221176
0.00056583917
0.00063887358
0.00044242204
0.00047548804
0.00054918917
0.00061899119
0.00067813484
0.00071938276
0.00074083304
0.00073904273
0.00071438086
0.0006717935
0.00062361174
0.00058991711
0.00057625108
0.00058238751
0.00058173169
0.00054621215
0.00051708459
0.00046993987
0.00052017552
0.0006176899
0.00071096958
0.00078248264
0.00083252353
0.00086598757
0.0008871755
0.00089480278
0.00088425689
0.00085033863
0.00079230389
0.00072160739
0.00066017805
0.00062545684
0.00062324779
0.00059742905
0.00053792435
0.00048104224
0.00049600583
0.00055016818
0.00065860484
0.00075042433
0.00080897397
0.00084308127
0.00086480286
0.00088099929
0.00089557128
0.00091255766
0.00092854478
0.00093433453
0.00091580638
0.00086352635
0.00078775834
0.00071320504
0.00067424172
0.00065741915
0.00061452093
0.00052813195
0.00045234283
0.00054607574
0.0005563719
0.00065465704
0.00072907824
0.00076434263
0.00077882871
0.00078758425
0.00079192483
0.0007896427
0.00078333348
0.00078008676
0.00079352778
0.00082736483
0.00087030034
0.00089389505
0.0008732123
0.00081101425
0.00074519029
0.00071071802
0.00068639803
0.00061590768
0.00050575596
0.00043273266
0.00055068821
0.000626883
0.00068462502
0.00070382741
0.00071300427
0.00072938035
0.0007411473
0.00073176789
0.00069859799
0.00065421139
0.00061546564
0.00059704839
0.00061104827
0.00066556504
0.0007493885
0.00082262727
0.00084122632
0.0008049181
0.00076206252
0.00074019307
0.00069988206
0.00058782039
0.00047973879
0.00044787933
0.0005665762
0.00060153617
0.00063880797
0.00064555099
0.00065854539
0.00069685241
0.00073161198
0.00072371063
0.00066283462
0.0005709897
0.00048020299
0.00041261905
0.00037943978
0.00038216791
0.0004244279
0.00051407779
0.00064106628
0.00075502797
0.00080255026
0.00079347895
0.00077862933
0.00076234461
0.00067583848
0.0005430323
0.00040823204
0.00058727205
0.00059083525
0.00059070387
0.00060876203
0.00066972249
0.00073648221
0.00074409487
0.00066387833
0.00052704019
0.00038573715
0.00027489347
0.00020348795
0.00017217535
0.00017846137
0.00021862471
0.00029721109
0.00042540941
0.00058767172
0.00072149728
0.00078194278
0.00079711237
0.00080372015
0.00075000151
0.00061473811
0.0004636906
0.00047879952
0.00072955085
0.00056123127
0.00055015627
0.00056028336
0.00062796258
0.00072607672
0.0007727241
0.00070393363
0.0005398473
0.00035700921
0.0002086676
0.00011457228
6.9110814e-05
5.4578075e-05
5.7931449e-05
8.0599403e-05
0.00013878751
0.00024759949
0.00041232075
0.00059442589
0.00072581563
0.00079051443
0.0008268071
0.00080579435
0.0006849389
0.00049957633
0.00045094371
0.00065508674
0.00053008679
0.00051605493
0.00056637246
0.00068044922
0.00077950994
0.00076838181
0.00061711093
0.00040352956
0.00021839459
9.9126313e-05
5.0215903e-05
3.7912176e-05
3.429657e-05
3.4230866e-05
3.4818682e-05
5.5697588e-05
0.00012622433
0.00027207286
0.00046723962
0.00064648217
0.00076320896
0.00083528781
0.00084496794
0.00074359823
0.00054018771
0.00042206034
0.00061106468
0.0004814303
0.00050182664
0.00060002542
0.00073555449
0.00080754919
0.00073286873
0.00052650201
0.00030135744
0.0001356164
5.7534844e-05
3.5196183e-05
3.084504e-05
2.9957357e-05
2.946403e-05
2.8575369e-05
3.349065e-05
6.5145654e-05
0.0001790846
0.00036805443
0.00057042109
0.0007283694
0.00083627747
0.00087264729
0.00078734612
0.0005795637
0.00041661301
0.00056295238
0.00051196352
0.00044700971
0.00051135536
0.00063771107
0.00077404092
0.00081301554
0.00069500003
0.00046601505
0.00024444678
9.848441e-05
4.5886699e-05
2.9832547e-05
3.1182241e-05
3.683016e-05
3.2673377e-05
2.8507663e-05
2.9096495e-05
4.309033e-05
0.00012932547
0.00030685162
0.0005157908
0.00070031661
0.00083845566
0.00089350188
0.00081547038
0.00060380475
0.00042468912
0.00055961
0.00046593834
0.00042752443
0.00052712581
0.00066307246
0.00079323813
0.0008105634
0.00067722965
0.00044591627
0.0002261875
8.9816826e-05
4.5158094e-05
2.9253417e-05
3.196668e-05
7.8750162e-05
4.0966134e-05
2.7453446e-05
2.843326e-05
3.9354447e-05
0.00011428564
0.0002842666
0.00049114131
0.00069156225
0.0008506359
0.00090996848
0.00082432249
0.00060284812
0.00042479012
0.0005741733
0.00042785177
0.00041683803
0.00053579074
0.00067087091
0.00079651274
0.00081041979
0.00068676655
0.00046456926
0.00024336068
0.0001024104
5.0511609e-05
2.977709e-05
2.8871137e-05
3.9284577e-05
2.7386649e-05
2.592287e-05
2.8354758e-05
4.5643635e-05
0.00012986256
0.00029639514
0.00049995987
0.00071056004
0.00087531967
0.00091972195
0.00081175729
0.00058067683
0.0003926037
0.00058956272
0.00042148705
0.00040227933
0.00052811306
0.00066088317
0.00078640739
0.00081411396
0.00072017888
0.00051941276
0.00029747252
0.00013801087
6.8395814e-05
3.6220622e-05
2.6300515e-05
2.5624086e-05
2.5826228e-05
2.6156237e-05
3.3947855e-05
7.0725292e-05
0.00017470676
0.00034099681
0.00054616699
0.00075944832
0.00090696452
0.00091498499
0.00077262815
0.00053202183
0.00037478259
0.00061411123
0.00046982751
0.00038494851
0.00050467496
0.0006338116
0.0007623837
0.00081579106
0.00076598023
0.00060282638
0.00039024771
0.00021064472
0.00010951164
5.9082936e-05
3.7164101e-05
3.1414051e-05
3.2080152e-05
3.9111908e-05
6.2060622e-05
0.00012864436
0.00025063988
0.00042258523
0.00063147334
0.00082850925
0.00093028185
0.00088466698
0.00070707709
0.00047777074
0.00038023297
0.00044577757
0.00036594664
0.00046853601
0.00058960549
0.00072224587
0.00080370716
0.00080686612
0.00070080693
0.00051756666
0.00033043133
0.00020116643
0.00012727349
8.5747039e-05
6.732938e-05
6.8614955e-05
8.9337169e-05
0.00013863457
0.00023136363
0.00036618907
0.00054651594
0.00074395732
0.00089345121
0.00092505808
0.00081959732
0.00061744233
0.00042845845
0.0003963489
0.00035198325
0.00042491693
0.00053071261
0.00066320475
0.00076738873
0.00082252797
0.00078809585
0.00066342955
0.00049310737
0.00034399105
0.00024938801
0.00019704059
0.00017255344
0.00017493302
0.00020756672
0.00027482396
0.00038142583
0.00052548149
0.00069785736
0.00085003577
0.00092168457
0.00087401904
0.00071845731
0.00052007507
0.00040185926
0.00044342278
0.00034962999
0.00038364936
0.00046212882
0.00058589242
0.00070142945
0.00079607281
0.00083223719
0.00078891205
0.00067509843
0.00053750799
0.00042727609
0.00036350807
0.00033832508
0.00034555543
0.00038659308
0.00046254583
0.00057186435
0.00070378931
0.00083127427
0.00090505052
0.00088800808
0.00077302373
0.00059519038
0.00043566316
0.00037700952
0.00050572893
0.00038368391
0.00035492306
0.00039445557
0.00049733317
0.00060921809
0.00072294054
0.00081004184
0.00084611119
0.00081799739
0.00073994218
0.0006487442
0.00058051315
0.00055122724
0.00055950482
0.00060120234
0.00067032981
0.00075755932
0.00084250556
0.00089378439
0.00088008451
0.00078887657
0.00063606745
0.00047414778
0.00037903356
0.00036954608
0.00037310719
0.00034748238
0.00041029244
0.00050346767
0.00061307519
0.00072191
0.00080919433
0.00085659289
0.00086005358
0.00083152463
0.00079355971
0.00076907059
0.00076918954
0.00079330148
0.00083170665
0.00086915792
0.00088501559
0.00085740085
0.00077382435
0.00064032241
0.00048964349
0.00037841286
0.00034555652
0.00033277275
0.00035082685
0.00040657808
0.00048992299
0.00059039251
0.00069236668
0.00077898779
0.00083784985
0.00086938533
0.00088002765
0.00088084341
0.00088035316
0.00088063649
0.00087775445
0.00085956631
0.00081270117
0.00072785523
0.00060791095
0.0004748907
0.0003701937
0.00032928681
0.00036956918
0.00033725736
0.00035021485
0.00038953185
0.00045386629
0.0005363964
0.00062478233
0.00070154586
0.00075996746
0.00079763502
0.00081556806
0.00081723267
0.00080316022
0.0007705118
0.00071491736
0.00063345905
0.00053097989
0.00042544851
0.00035011634
0.00031451369
0.00035626934
0.00035005539
0.00036025075
0.00036598365
0.00040092681
0.00045504136
0.0005169332
0.00057097517
0.00061404001
0.00063632049
0.0006371906
0.00061612784
0.00057403306
0.00051496093
0.00044688471
0.00038464249
0.00034010371
0.00029719037
0.00034290507
0.00041111034
0.00034751856
0.0003611268
0.00035352893
0.00036978696
0.00038986739
0.00041188421
0.00042243997
0.0004200364
0.00040350064
0.00037456266
0.00034463087
0.00032218993
0.00029267794
0.00030313648
0.00042663498
0.00039566882
0.00035023216
0.00031891299
0.00031194515
0.00030931501
0.00030733907
0.00030432239
0.00030651807
0.00032317209
0.00037361294
0.00037270417
0.00059933044
0.00053227509
0.00051192831
0.0004892764
0.00047467731
0.0005567432
0.00061271294
0.00062638335
0.00062063949
0.00065439168
0.00069537858
0.00075128538
0.00078864327
0.00081522747
0.00048520064
0.0005111736
0.00055456229
0.00059219247
0.00062248797
0.0006438532
0.0006664842
0.00070138543
0.00075123282
0.00079583611
0.00079456568
0.00077689065
0.00068276421
0.00071943466
0.00047181369
0.0005339696
0.00064232498
0.00074232415
0.00081864791
0.00086606593
0.00088660445
0.00087876581
0.00084833382
0.00081007573
0.00078749467
0.00079992799
0.00082745236
0.00084819747
0.00081831168
0.00069588218
0.00060245101
0.00051609858
0.00062775714
0.00078425515
0.0009194553
0.0010097059
0.0010620313
0.0010881491
0.0010969551
0.0010893637
0.001061667
0.0010109423
0.00094412012
0.00088567968
0.00086212961
0.00087577829
0.00090400141
0.00084197309
0.00070953309
0.0005616743
0.00055091737
0.00069396076
0.00087832464
0.0010178963
0.0010917423
0.0011195257
0.0011251421
0.0011231115
0.0011211658
0.0011241972
0.0011278607
0.0011211204
0.0010893311
0.001028373
0.00096039912
0.00091911624
0.00093361651
0.00094126217
0.0008637807
0.00069096072
0.00052455802
0.00060620508
0.00071866649
0.00090122945
0.0010241545
0.0010647778
0.0010578357
0.0010367087
0.0010139662
0.00099106961
0.00097068901
0.00095905827
0.00096976286
0.0010041117
0.0010461724
0.0010660057
0.0010435919
0.00099268166
0.00096534011
0.00098216375
0.00097359636
0.00085426933
0.00064632656
0.00048056327
0.00068962184
0.00087183913
0.00098514875
0.0010011132
0.00097402385
0.00094890485
0.00092852145
0.0008974635
0.00085007503
0.00079635509
0.00075286514
0.00073540653
0.00075697427
0.00082334313
0.00091730493
0.00099452327
0.0010174389
0.0010007869
0.0010034781
0.001025776
0.00098127935
0.0007963332
0.00057385428
0.00051498055
0.0006499904
0.00083476685
0.00093810432
0.00093639287
0.00089999732
0.00088981985
0.00089476834
0.00087122949
0.00079966261
0.00069740651
0.00059558886
0.00051864313
0.00047988948
0.00048432713
0.00053958397
0.00065219542
0.00080098647
0.00092794847
0.00098847777
0.0010114257
0.0010451676
0.0010547964
0.00093132811
0.00069008118
0.00049042906
0.00077262148
0.00086977945
0.00087426629
0.00083905031
0.00084719075
0.00088864167
0.00088879021
0.00080277415
0.000653564
0.00049409813
0.00036466191
0.00027972605
0.00023892065
0.00024161717
0.00028739323
0.00038700586
0.00055040912
0.00074564019
0.00090062393
0.00098618821
0.0010445316
0.0010900917
0.0010269896
0.00080273271
0.00055206264
0.00052868657
0.00083561223
0.00079584384
0.00082985234
0.00079423981
0.00080164731
0.00087337054
0.00091860304
0.00085044772
0.00067566235
0.00046948329
0.0002978
0.00018332078
0.0001189782
9.1847654e-05
9.2731235e-05
0.00012274318
0.00019436849
0.00033263953
0.00054182013
0.0007620122
0.00092175292
0.0010244476
0.0011027384
0.0010879733
0.00089864632
0.00060678962
0.00051436761
0.00078509328
0.00079443364
0.00076363078
0.00074657884
0.00082545884
0.00092494825
0.00092083921
0.00076704385
0.00053266887
0.00031840262
0.00017187293
8.7632246e-05
5.021933e-05
3.960152e-05
3.9195507e-05
4.9041481e-05
8.6525392e-05
0.00018552675
0.00037306704
0.00061810932
0.00083598231
0.00098928112
0.0011024415
0.0011247531
0.00096967441
0.00065520877
0.0004960294
0.00076140705
0.00073721828
0.00070014212
0.00074779159
0.00087904559
0.00096133283
0.00089241889
0.00067838841
0.00042549668
0.00022878728
0.00010732143
4.6325131e-05
3.1930215e-05
3.0879139e-05
2.9991744e-05
3.0224243e-05
4.1426355e-05
0.00010207444
0.00025949994
0.0005032478
0.00075480847
0.00095104526
0.0010976998
0.0011469763
0.001015827
0.00070414619
0.00049408862
0.00056454223
0.00071451675
0.00066999581
0.00067180293
0.00077866156
0.00092718555
0.00097414097
0.00085973121
0.00062083607
0.00036916695
0.00018615989
7.5377543e-05
3.1727002e-05
3.1200823e-05
3.7528119e-05
3.3819953e-05
2.8915839e-05
3.1665736e-05
6.4999874e-05
0.00019703081
0.00043222285
0.00069846715
0.00092383249
0.0010969694
0.0011607013
0.0010377982
0.00072803488
0.00050042758
0.00057427781
0.00068629551
0.00061445838
0.00066905532
0.00081130447
0.00095661601
0.00097605676
0.00084636886
0.00060622671
0.00035756569
0.00017636681
6.5829666e-05
2.9055378e-05
3.1902108e-05
8.1312451e-05
4.3277017e-05
2.7663857e-05
3.0652128e-05
5.7359217e-05
0.00017971145
0.00040916515
0.0006780275
0.00092062009
0.0011081599
0.0011674186
0.0010308792
0.00071457556
0.00046927632
0.00059027052
0.00062506901
0.00057467982
0.00067331491
0.00083033024
0.00096746232
0.00097869301
0.00085981955
0.0006330661
0.00038699789
0.00019890824
7.9823867e-05
2.9391142e-05
2.8160958e-05
4.2026746e-05
2.7977788e-05
2.6428415e-05
3.0899783e-05
7.112179e-05
0.00020525147
0.00043288604
0.00069862988
0.00094875913
0.0011313377
0.0011623417
0.00099295858
0.00067174507
0.0004505237
0.00060250523
0.00060269322
0.00053829086
0.00066822603
0.00083002625
0.00096297705
0.00098488251
0.00089571665
0.00069666015
0.0004575657
0.00025959954
0.00012581433
4.8125715e-05
2.5773981e-05
2.5341655e-05
2.5540685e-05
2.6048392e-05
4.5898881e-05
0.00011885661
0.00027416168
0.00050186576
0.00076338084
0.0010066101
0.0011566173
0.001134351
0.00092026163
0.00059938221
0.00043016607
0.00061398344
0.00063303292
0.00050599475
0.00064632113
0.00080907438
0.00094492359
0.00098848309
0.00094245177
0.00078700193
0.00056771063
0.00036369995
0.000214318
0.0001134979
5.760159e-05
3.9418716e-05
3.8503508e-05
5.602431e-05
0.0001092532
0.00021640711
0.00038902621
0.00061750794
0.00086840379
0.00107813
0.0011639124
0.0010708732
0.00081602769
0.00052497009
0.00041799992
0.00056879024
0.00047259621
0.0006075896
0.00076751074
0.00090912255
0.00097769476
0.00098210755
0.00088765214
0.0007091139
0.00051213284
0.00035340173
0.0002399724
0.00016414495
0.00012661661
0.00012659169
0.00016313756
0.00024161229
0.00037069394
0.00055329385
0.00077476573
0.00099161579
0.001132475
0.0011298353
0.00096356035
0.00068827932
0.00046615852
0.00041846405
0.00044173187
0.00055409951
0.0007046811
0.00085245025
0.00094212727
0.00099412059
0.00097203534
0.00085986423
0.0006946621
0.00053885761
0.00042286309
0.00034601461
0.00030596885
0.00030661668
0.00035155592
0.00044231629
0.00057975264
0.00075581474
0.00094357174
0.0010900304
0.0011338921
0.0010385659
0.00082165344
0.00057144583
0.00043715758
0.00044244507
0.00039969654
0.00049276134
0.00062153869
0.00077200929
0.00087591157
0.0009621934
0.001008599
0.00098092572
0.00088066467
0.00075360146
0.0006451708
0.00057405864
0.00054141085
0.00054816803
0.00059719049
0.00068716092
0.00081118032
0.00094999635
0.0010678624
0.001117354
0.0010609183
0.00089485307
0.00066533919
0.00047572611
0.00040911319
0.0005047907
0.00040936642
0.0004307075
0.00052598553
0.00066771595
0.00077931606
0.00088116888
0.00097401289
0.0010267167
0.0010133991
0.00095002234
0.00087388282
0.00081676099
0.00079244373
0.00080296407
0.00084624621
0.00091602995
0.0009990208
0.001071068
0.0010996749
0.0010537676
0.00092071821
0.00072089504
0.00051733147
0.00041026406
0.00039769847
0.0004117841
0.00044295456
0.00054880973
0.00065873397
0.00076019219
0.00086879031
0.00097127228
0.0010361427
0.001051435
0.0010336956
0.0010075741
0.00099327329
0.00099890352
0.0010222991
0.0010545158
0.0010799372
0.0010772657
0.001024334
0.00090710837
0.00073176274
0.00053772343
0.00040977662
0.00038215872
0.0003864091
0.00044767467
0.00053090998
0.00061915269
0.00071786922
0.00082801464
0.00093471462
0.0010096658
0.001051078
0.0010667765
0.0010705406
0.0010716902
0.0010721976
0.0010632708
0.0010328304
0.00096704048
0.00085500683
0.00069832658
0.00052558562
0.00040606667
0.00036701805
0.0004108932
0.00039497366
0.00043806471
0.00049096497
0.00056092739
0.00064236642
0.0007458444
0.00084173945
0.00091651625
0.00096439517
0.00098566539
0.0009862106
0.00096730764
0.00092546039
0.00085507653
0.00075207225
0.00062113944
0.00048493633
0.00039243758
0.00036180483
0.00039667132
0.00040970024
0.0004355306
0.00044938
0.00048205674
0.00053951467
0.00061441746
0.00068507649
0.00074396428
0.00077388323
0.00077559041
0.00074794118
0.00069299012
0.00061684191
0.00052824503
0.00044511362
0.00038426063
0.00033515365
0.00039600505
0.00048243005
0.00041096919
0.00043055583
0.00041676022
0.00043558712
0.00046311071
0.0004955716
0.00051198906
0.00050954168
0.00048677309
0.00044904962
0.00040996392
0.00037491567
0.00033996464
0.00034675573
0.0004935596
0.00045326446
0.00039639161
0.00036918333
0.00037039123
0.00037437698
0.00037401779
0.00036745302
0.00036352976
0.00037259889
0.00040812547
0.00040139973
0.00064536377
0.00056436674
0.00054004021
0.00051571136
0.00048835259
0.00080151037
0.00088667687
0.00089976075
0.00088363718
0.00090696906
0.00092798916
0.00094645114
0.00090879095
0.00090836598
0.00057840071
0.00066134991
0.00072135844
0.00078042136
0.00083540949
0.00089024173
0.00095383085
0.0010318735
0.0011021625
0.0011315369
0.0010760536
0.00098560536
0.00077704833
0.00078030337
0.00050561869
0.00061608794
0.00075462095
0.00086805148
0.0009514409
0.0010037687
0.0010281151
0.0010272389
0.0010156225
0.0010166154
0.001052714
0.0011235606
0.0011811498
0.0011858536
0.0010889969
0.00083897402
0.00072057526
0.00055192657
0.00070534083
0.00090936158
0.0010836055
0.0011997308
0.0012642534
0.0012907912
0.0012915331
0.0012697117
0.0012270297
0.0011702585
0.0011197873
0.0011074026
0.0011497794
0.001217513
0.0012539156
0.0011102617
0.00088605137
0.0006457014
0.00060973548
0.00080900205
0.0010746613
0.0012756679
0.0013822594
0.0014168467
0.001412444
0.0013926411
0.0013713155
0.0013519098
0.0013324224
0.0013031262
0.001254923
0.0011971885
0.0011654134
0.001189676
0.0012691912
0.0012787681
0.0011364324
0.00085218739
0.00058377033
0.00068970038
0.00087020125
0.0011516472
0.0013456047
0.0014114681
0.0013925313
0.0013406663
0.0012850073
0.0012354646
0.0011965831
0.0011734102
0.0011759799
0.0012004248
0.0012282688
0.0012341471
0.0012134815
0.0011977496
0.001240168
0.0013160989
0.0013022063
0.0011025727
0.00077324976
0.00052548071
0.00081944343
0.0011307569
0.0013342382
0.0013680873
0.0013060418
0.0012272886
0.0011600641
0.0010974295
0.0010318718
0.00096885957
0.00092109327
0.00090415661
0.0009304664
0.0010009413
0.0010923333
0.0011634285
0.0011939389
0.001221259
0.0012962984
0.0013625561
0.0012857966
0.00099477207
0.00064486176
0.00057550514
0.00071851177
0.0010955064
0.0013017844
0.0013116209
0.0012191421
0.0011366854
0.0010882391
0.0010365941
0.0009538238
0.00084710227
0.00074193379
0.0006620018
0.00062161552
0.0006286344
0.00069304965
0.00081738485
0.00097183253
0.001100494
0.0011807572
0.0012614722
0.0013612933
0.0013816475
0.0011834243
0.00080635955
0.0005385236
0.0009692514
0.001213931
0.0012540091
0.0011561644
0.0010777189
0.0010613616
0.0010391323
0.0009509076
0.00080314562
0.00064029857
0.00050143153
0.00040565606
0.00035763009
0.00035831146
0.0004099337
0.00052549273
0.00070857141
0.00091642411
0.0010837462
0.0012084561
0.0013328249
0.0014162184
0.0013086339
0.00095884032
0.00059824337
0.00056535728
0.00090501787
0.0010706595
0.0012107742
0.0011320334
0.0010376537
0.0010407646
0.0010638513
0.00099934
0.00083201369
0.00062363719
0.00043625229
0.00029767778
0.00021093485
0.00017065247
0.00017026812
0.00020861916
0.00029839546
0.00046492253
0.00070178201
0.00094112819
0.001130555
0.0012906854
0.001418159
0.0013808112
0.0010810516
0.00065913719
0.0005510233
0.00088701288
0.0011339789
0.0011354117
0.001013136
0.0010004454
0.0010696641
0.0010691608
0.00092796766
0.00069784591
0.00046946725
0.00028850317
0.00016467502
9.4473142e-05
6.7552886e-05
6.7666643e-05
9.2733851e-05
0.00015528589
0.00028771239
0.00051487969
0.00079157145
0.0010392474
0.0012424535
0.001405898
0.0014172918
0.0011647012
0.00071581617
0.00052181287
0.00090567512
0.0011071851
0.0010238927
0.00094874976
0.0010280399
0.0011091368
0.0010519818
0.00085018031
0.00059498482
0.00036976872
0.000194248
8.3055923e-05
4.1586605e-05
3.5750977e-05
3.4929225e-05
4.3695947e-05
8.0466134e-05
0.000179994
0.00038315779
0.00067004232
0.00095676832
0.0011987323
0.0013916052
0.001432291
0.0012118544
0.00077241891
0.00051084547