/*--------------------------------*- C++ -*----------------------------------*\
| =========                 |                                                 |
| \\      /  F ield         | OpenFOAM: The Open Source CFD Toolbox           |
|  \\    /   O peration     | Version:  2406                                  |
|   \\  /    A nd           | Website:  www.openfoam.com                      |
|    \\/     M anipulation  |                                                 |
\*---------------------------------------------------------------------------*/
FoamFile
{
    version     2.0;
    format      ascii;
    arch        "LSB;label=32;scalar=64";
    class       volScalarField;
    location    "950";
    object      nut;
}
// * * * * * * * * * * * * * * * * * * * * * * * * * * * * * * * * * * * * * //

dimensions      [0 2 -1 0 0 0 0];

internalField   nonuniform List<scalar> 
150387
(
9.7223937e-06
1.1077694e-05
1.1847949e-05
1.2463822e-05
1.306726e-05
1.1408054e-05
8.6511537e-06
7.5849546e-06
3.9341488e-06
9.8930975e-06
1.1524901e-05
1.2889943e-05
1.4265532e-05
1.5080506e-05
1.5267303e-05
1.5273863e-05
1.550761e-05
1.5382383e-05
1.5083203e-05
1.3206515e-05
5.6549886e-06
9.0422611e-06
1.0945659e-05
1.438511e-05
1.8641118e-05
2.1572559e-05
2.2757194e-05
2.2754134e-05
2.222944e-05
2.1014377e-05
1.8868434e-05
1.7553103e-05
1.7390278e-05
1.7123353e-05
1.5686353e-05
1.2316467e-05
5.503096e-06
3.7356254e-06
1.0460897e-05
1.4268626e-05
2.0515939e-05
2.5196089e-05
2.7485657e-05
2.8194859e-05
2.7719222e-05
2.6820078e-05
2.6005766e-05
2.4911783e-05
2.3420016e-05
2.1119081e-05
1.8853301e-05
1.8650459e-05
1.8721696e-05
1.7581979e-05
1.4109234e-05
6.3056358e-06
2.9537113e-06
9.8758563e-06
1.7318901e-05
2.4903443e-05
2.8474883e-05
2.9405354e-05
2.9153756e-05
2.8352825e-05
2.7030899e-05
2.5852631e-05
2.520438e-05
2.4826964e-05
2.4034764e-05
2.2914344e-05
2.1145653e-05
1.9199036e-05
1.9563513e-05
1.9985566e-05
1.8695241e-05
1.3262392e-05
8.3698653e-06
1.1303639e-05
1.8867062e-05
2.522629e-05
2.7151149e-05
2.6857198e-05
2.5636238e-05
2.3800065e-05
2.1707733e-05
1.9863273e-05
1.8663633e-05
1.8538109e-05
1.9372949e-05
2.0339495e-05
2.1049203e-05
2.1349245e-05
1.9955987e-05
1.9387861e-05
2.053533e-05
2.1232921e-05
1.9174219e-05
1.2384526e-05
6.6433939e-06
1.0149025e-05
1.7208082e-05
2.3434224e-05
2.4824248e-05
2.4195239e-05
2.2925903e-05
2.0761844e-05
1.8082402e-05
1.56699e-05
1.3811143e-05
1.2562595e-05
1.2131251e-05
1.2505126e-05
1.3671357e-05
1.5508469e-05
1.728139e-05
1.8955553e-05
1.8937348e-05
2.0069332e-05
2.1827672e-05
2.2679319e-05
1.7153958e-05
1.0602512e-05
5.6245576e-06
3.7188842e-06
1.5478844e-05
2.096865e-05
2.2566104e-05
2.2286408e-05
2.1256829e-05
1.9418421e-05
1.6643228e-05
1.3809755e-05
1.1676773e-05
1.0417587e-05
9.7894824e-06
9.490996e-06
9.4854232e-06
9.8421918e-06
1.0785259e-05
1.2276583e-05
1.4460175e-05
1.6673828e-05
1.8701698e-05
2.1351968e-05
2.3603614e-05
2.2517949e-05
1.4159069e-05
9.9288131e-06
1.3000983e-05
1.8895398e-05
2.0751534e-05
2.091325e-05
2.0392701e-05
1.9193136e-05
1.7045104e-05
1.3676865e-05
1.1161573e-05
1.0029256e-05
9.6892341e-06
9.5095181e-06
9.2863397e-06
9.213177e-06
9.3148974e-06
9.4805004e-06
9.9854914e-06
1.1155697e-05
1.3146116e-05
1.5948048e-05
1.9740778e-05
2.3380151e-05
2.526534e-05
1.9001864e-05
1.1827247e-05
9.8980062e-06
1.5655972e-05
1.8817806e-05
1.9711563e-05
1.9761407e-05
1.9318271e-05
1.8598438e-05
1.4905906e-05
1.1459757e-05
1.0016027e-05
9.5316883e-06
8.7179909e-06
7.2954032e-06
6.3047981e-06
6.393392e-06
7.229992e-06
8.4770844e-06
9.3607223e-06
9.8633982e-06
1.0859804e-05
1.3183738e-05
1.7323474e-05
2.2386167e-05
2.6032421e-05
2.3360375e-05
1.3718344e-05
1.064057e-05
1.0142962e-05
1.6171808e-05
1.8201049e-05
1.8975774e-05
1.9475736e-05
2.0045133e-05
1.7359618e-05
1.2840992e-05
1.0237885e-05
9.4267285e-06
8.1589295e-06
5.5810707e-06
3.988463e-06
3.5446566e-06
3.6783683e-06
3.8630912e-06
4.9916385e-06
7.6088429e-06
9.3910428e-06
9.8691075e-06
1.1238976e-05
1.5100917e-05
2.1074669e-05
2.5989077e-05
2.5784566e-05
1.6476765e-05
1.0827866e-05
1.1052632e-05
1.6176947e-05
1.7658117e-05
1.8991144e-05
2.0643799e-05
2.0383097e-05
1.5909232e-05
1.1327678e-05
9.5877188e-06
8.5773437e-06
5.9187087e-06
3.8466887e-06
3.0808997e-06
2.7756559e-06
2.9258308e-06
2.9373731e-06
3.1072318e-06
4.8290973e-06
8.1262185e-06
9.4789505e-06
1.0173937e-05
1.3460068e-05
1.9959871e-05
2.5806274e-05
2.6997957e-05
1.9563135e-05
1.172597e-05
8.6185863e-06
1.459798e-05
1.5712661e-05
1.75652e-05
1.9873877e-05
2.1717536e-05
1.9900911e-05
1.4812852e-05
1.0401719e-05
9.1478396e-06
7.6037634e-06
4.8493831e-06
3.4924447e-06
2.5427169e-06
2.4202524e-06
2.3607836e-06
2.5462509e-06
2.7410281e-06
3.5305723e-06
6.630426e-06
9.0715452e-06
9.597791e-06
1.2488036e-05
1.9548903e-05
2.5977509e-05
2.7657022e-05
2.16824e-05
1.2328561e-05
1.078962e-05
1.3492902e-05
1.5248858e-05
1.7635712e-05
2.0923767e-05
2.248058e-05
1.9360767e-05
1.4172317e-05
9.8288893e-06
8.8791818e-06
6.910655e-06
4.4603061e-06
3.3035305e-06
2.3490404e-06
2.6581282e-06
2.9272164e-06
2.4134092e-06
2.6181947e-06
3.1601722e-06
5.8988417e-06
8.6592782e-06
9.2667935e-06
1.2195747e-05
1.9767468e-05
2.6260962e-05
2.7848805e-05
2.2371238e-05
1.2874374e-05
9.3868833e-06
1.2926802e-05
1.471842e-05
1.7520455e-05
2.1451328e-05
2.2945019e-05
1.9229e-05
1.4105734e-05
9.7471135e-06
8.8221843e-06
6.7254726e-06
4.3667936e-06
3.257564e-06
2.5785903e-06
3.1796377e-06
2.0458799e-06
2.5301611e-06
2.612311e-06
3.2387103e-06
5.9168081e-06
8.3807442e-06
9.1512817e-06
1.2457936e-05
2.0236953e-05
2.6436203e-05
2.732576e-05
2.1609963e-05
1.312459e-05
9.357807e-06
1.2136727e-05
1.4252207e-05
1.7053021e-05
2.1520137e-05
2.3359434e-05
1.9974657e-05
1.4748763e-05
1.0279605e-05
9.0613456e-06
7.1962121e-06
4.8701191e-06
3.6005167e-06
2.9855139e-06
2.5955867e-06
2.5696184e-06
2.675598e-06
2.8705893e-06
4.0700787e-06
6.7081037e-06
8.3753118e-06
9.4632417e-06
1.3477594e-05
2.1123999e-05
2.6608254e-05
2.6396871e-05
1.9631516e-05
1.3282891e-05
4.5301222e-06
9.1618594e-06
1.3502336e-05
1.6302611e-05
2.12064e-05
2.3825342e-05
2.1663725e-05
1.6357598e-05
1.1408568e-05
9.5589852e-06
8.0817465e-06
5.9507649e-06
4.3808474e-06
3.4426181e-06
2.9370503e-06
2.886427e-06
3.0357128e-06
3.7100809e-06
5.6014407e-06
7.6523462e-06
8.6826224e-06
1.0442761e-05
1.5478907e-05
2.242874e-05
2.6655821e-05
2.5051227e-05
1.7160941e-05
1.1705298e-05
7.8960048e-06
7.9405348e-06
1.2460119e-05
1.5191644e-05
2.0013756e-05
2.3732988e-05
2.3297599e-05
1.8726751e-05
1.3357238e-05
1.0493686e-05
9.0848203e-06
7.3782386e-06
5.8789864e-06
4.7176499e-06
4.0163537e-06
4.0085655e-06
4.4651577e-06
5.6222358e-06
7.1754149e-06
8.3989147e-06
9.5309384e-06
1.2252969e-05
1.8312482e-05
2.4061918e-05
2.6329019e-05
2.2662666e-05
1.5434905e-05
1.1715184e-05
1.0665734e-05
1.3884906e-05
1.7778745e-05
2.2554628e-05
2.4141205e-05
2.1654451e-05
1.638606e-05
1.2445695e-05
1.0293084e-05
8.7722522e-06
7.5214813e-06
6.6062255e-06
6.1306571e-06
6.2093865e-06
6.6555083e-06
7.4610303e-06
8.372808e-06
9.3636381e-06
1.1179605e-05
1.5343302e-05
2.1262623e-05
2.558205e-05
2.5219416e-05
1.9095057e-05
1.4181503e-05
7.3944955e-06
9.7817908e-06
1.2232542e-05
1.570853e-05
2.0590799e-05
2.3408774e-05
2.4062217e-05
2.0158542e-05
1.6080941e-05
1.2721895e-05
1.0497597e-05
8.9044808e-06
8.0849005e-06
7.8494434e-06
7.9435537e-06
8.2432353e-06
8.7751823e-06
9.6216918e-06
1.1118392e-05
1.4253482e-05
1.9390066e-05
2.4121418e-05
2.5825075e-05
2.2429418e-05
1.6277414e-05
1.0638166e-05
8.0523764e-06
9.9747521e-06
1.3899036e-05
1.808735e-05
2.0985746e-05
2.4091746e-05
2.3245898e-05
2.060824e-05
1.751945e-05
1.4465103e-05
1.1770997e-05
1.0009644e-05
9.2569278e-06
9.2236954e-06
9.6342485e-06
1.0472331e-05
1.2032112e-05
1.485537e-05
1.9099125e-05
2.3378037e-05
2.6017374e-05
2.4272224e-05
1.8209979e-05
1.352704e-05
7.7692454e-06
7.4710525e-06
1.1591956e-05
1.5232057e-05
1.8743307e-05
2.1449857e-05
2.3412502e-05
2.2922158e-05
2.2228709e-05
2.0275262e-05
1.8218155e-05
1.6164856e-05
1.4495814e-05
1.3809985e-05
1.3999377e-05
1.5270499e-05
1.7752153e-05
2.1208401e-05
2.4625019e-05
2.6863016e-05
2.5324836e-05
1.957288e-05
1.4263379e-05
1.0252068e-05
4.42128e-06
8.9129343e-06
1.1350747e-05
1.6391294e-05
1.8755923e-05
2.0577107e-05
2.2227863e-05
2.314678e-05
2.3593061e-05
2.3723589e-05
2.3312923e-05
2.3087566e-05
2.3128711e-05
2.3348066e-05
2.4261579e-05
2.5885116e-05
2.7300875e-05
2.7397595e-05
2.5069383e-05
1.9584015e-05
1.3594783e-05
8.3309342e-06
4.5979532e-06
7.3048826e-06
1.2914406e-05
1.596606e-05
1.8098468e-05
1.9042308e-05
2.0465084e-05
2.2488633e-05
2.4129039e-05
2.5401206e-05
2.6493913e-05
2.7337164e-05
2.7640246e-05
2.7559101e-05
2.712136e-05
2.5560895e-05
2.2025031e-05
1.6424005e-05
1.2189451e-05
9.2962203e-06
6.0076558e-06
5.8957815e-06
1.1305625e-05
1.5094849e-05
1.6813944e-05
1.7367673e-05
1.7967987e-05
1.9494559e-05
2.134927e-05
2.2839755e-05
2.3649267e-05
2.3340605e-05
2.1954434e-05
1.9590656e-05
1.6211008e-05
1.3227596e-05
1.0898153e-05
7.7405071e-06
5.2557391e-06
3.9573767e-06
9.298425e-06
1.4094987e-05
1.4730752e-05
1.5099471e-05
1.5390671e-05
1.5872901e-05
1.6480521e-05
1.6633631e-05
1.5826584e-05
1.4469897e-05
1.322118e-05
1.1876316e-05
1.0301774e-05
7.4768339e-06
4.3539005e-06
3.9105414e-06
9.8435967e-06
1.225987e-05
1.2669871e-05
1.3326439e-05
1.2764296e-05
1.2322592e-05
1.1871018e-05
1.0988977e-05
1.0524081e-05
8.6280326e-06
8.019086e-06
8.0304476e-06
9.6803338e-06
9.408162e-06
9.4818607e-06
1.169974e-05
7.566381e-06
7.3373732e-06
1.758886e-05
2.5170156e-05
2.4253137e-05
2.4499502e-05
2.4364413e-05
2.3135373e-05
2.6010686e-05
1.6161117e-05
1.5407539e-05
2.8862692e-05
3.5488602e-05
4.1352061e-05
4.5849482e-05
4.723641e-05
4.6376587e-05
4.4648738e-05
4.3891401e-05
4.1960451e-05
3.2679499e-05
3.1065178e-05
1.0550924e-05
8.509343e-06
8.0102442e-06
2.8833732e-05
4.1791628e-05
5.413339e-05
6.4616152e-05
7.206717e-05
7.6215429e-05
7.702773e-05
7.4735607e-05
6.9999932e-05
6.3606594e-05
5.7762794e-05
5.5219186e-05
5.1359692e-05
4.3478395e-05
1.9354243e-05
1.8963351e-05
1.0565896e-05
2.9595109e-05
4.8091121e-05
6.6067442e-05
8.0201733e-05
8.950874e-05
9.4639068e-05
9.6862785e-05
9.7020782e-05
9.5236887e-05
9.179645e-05
8.6251091e-05
7.8513552e-05
7.1148616e-05
6.4221704e-05
6.1558806e-05
4.8684975e-05
3.0403456e-05
1.3619859e-05
1.0844852e-05
3.2135032e-05
5.527605e-05
7.518419e-05
8.8376821e-05
9.486874e-05
9.651321e-05
9.5685675e-05
9.4564288e-05
9.4530085e-05
9.4987063e-05
9.5015217e-05
9.3811907e-05
9.0288514e-05
8.5897562e-05
7.8725164e-05
7.27495e-05
6.7692637e-05
5.4607788e-05
3.18308e-05
1.3915264e-05
8.8753645e-06
3.0869334e-05
5.597942e-05
7.5025344e-05
8.4983248e-05
8.7940282e-05
8.6303773e-05
8.2214063e-05
7.763898e-05
7.3675497e-05
7.1010319e-05
7.118009e-05
7.4447881e-05
7.9995177e-05
8.4547022e-05
8.6424325e-05
8.5544203e-05
8.2633245e-05
7.885551e-05
7.213004e-05
5.4541116e-05
3.0345474e-05
1.2937222e-05
2.0016264e-05
4.9583747e-05
6.9525746e-05
7.7313061e-05
7.8964297e-05
7.8623467e-05
7.3902461e-05
6.6965699e-05
5.905831e-05
5.1647604e-05
4.5918183e-05
4.3131967e-05
4.4188898e-05
4.9972357e-05
5.9680618e-05
7.1038302e-05
7.8650029e-05
8.2695879e-05
8.4905415e-05
8.3337097e-05
7.3340132e-05
4.9009634e-05
3.0412603e-05
1.0473555e-05
1.7550729e-05
4.4419418e-05
6.2230951e-05
6.8540217e-05
7.176326e-05
7.5516154e-05
7.2369164e-05
6.3607132e-05
5.2171978e-05
4.0459579e-05
3.1706516e-05
2.622512e-05
2.3692847e-05
2.3816318e-05
2.7009817e-05
3.4517013e-05
4.690466e-05
6.1714042e-05
7.3407634e-05
8.1878408e-05
8.804115e-05
8.6303613e-05
6.7563959e-05
4.357917e-05
1.8955211e-05
3.1250542e-05
5.1678762e-05
5.9663401e-05
6.51192e-05
7.4105659e-05
7.5256434e-05
6.5970783e-05
5.1187407e-05
3.5824535e-05
2.4363722e-05
1.6917011e-05
1.2548583e-05
1.0870157e-05
1.1318705e-05
1.3601732e-05
1.8456216e-05
2.7747025e-05
4.1991374e-05
5.9079892e-05
7.3340971e-05
8.5368226e-05
9.2937202e-05
8.2596177e-05
5.7735842e-05
3.213936e-05
1.413828e-05
9.4985711e-06
3.2928206e-05
5.2628663e-05
5.7926213e-05
7.0035955e-05
7.8730935e-05
7.2531311e-05
5.5957631e-05
3.6946875e-05
2.2589883e-05
1.2940775e-05
7.532766e-06
5.2949675e-06
5.0276825e-06
5.0871411e-06
5.8664206e-06
8.8903996e-06
1.5538257e-05
2.7227589e-05
4.3674152e-05
6.2411455e-05
7.9005432e-05
9.3343935e-05
9.2631636e-05
7.1162603e-05
4.0199073e-05
2.4789834e-05
2.0658024e-05
4.106705e-05
4.9572753e-05
6.0473225e-05
7.7567601e-05
8.0370666e-05
6.6802211e-05
4.4733583e-05
2.622737e-05
1.4052345e-05
7.0626513e-06
5.9850756e-06
7.5593478e-06
7.0541854e-06
7.1070325e-06
5.8907576e-06
4.7763741e-06
8.0782385e-06
1.7460727e-05
3.2269251e-05
5.1384638e-05
7.1974642e-05
9.078666e-05
9.7885403e-05
8.1980646e-05
4.8961513e-05
2.6605981e-05
1.0924224e-05
4.0247597e-05
4.947638e-05
6.7764028e-05
8.3327087e-05
7.957358e-05
5.9735612e-05
3.6346971e-05
1.9852074e-05
9.6941535e-06
6.2887424e-06
8.7024426e-06
6.4844896e-06
5.7438338e-06
5.9721933e-06
5.875666e-06
7.8780588e-06
5.0766403e-06
1.1630991e-05
2.4801313e-05
4.3124545e-05
6.5948836e-05
8.8432856e-05
0.00010051298
8.9454081e-05
5.6952448e-05
2.9411951e-05
7.6827998e-06
2.3123987e-05
3.7716957e-05
5.2392014e-05
7.4341905e-05
8.6714909e-05
7.7738063e-05
5.45918e-05
3.2213917e-05
1.7019893e-05
8.1659075e-06
7.3464483e-06
6.5498507e-06
5.8383574e-06
3.2835467e-06
3.3172988e-06
5.3213667e-06
6.4852193e-06
4.9533848e-06
8.874867e-06
2.0767827e-05
3.8169954e-05
6.1739663e-05
8.745346e-05
0.00010227883
9.3835822e-05
6.2219071e-05
3.3152875e-05
1.5981122e-05
2.6715286e-05
3.7022055e-05
5.5809135e-05
7.8382701e-05
8.8927285e-05
7.6868351e-05
5.3478337e-05
3.1752048e-05
1.6471827e-05
8.1052229e-06
8.1861106e-06
6.471323e-06
4.9351385e-06
2.2711399e-06
3.2276982e-06
5.4403452e-06
6.4646086e-06
5.114438e-06
8.2927441e-06
1.9647043e-05
3.6437414e-05
6.0788774e-05
8.8825533e-05
0.00010389194
9.5545408e-05
6.3814622e-05
3.1907489e-05
1.7297159e-05
2.3844657e-05
3.5970254e-05
5.7490378e-05
8.0062517e-05
9.035147e-05
7.7963388e-05
5.6108791e-05
3.429361e-05
1.7990961e-05
9.0207987e-06
8.8567651e-06
6.6529538e-06
5.1695665e-06
3.7308859e-06
4.1793734e-06
5.4962038e-06
6.583072e-06
5.0661895e-06
9.6457533e-06
2.1014802e-05
3.8089713e-05
6.3936618e-05
9.2621197e-05
0.00010528024
9.449966e-05
6.0874499e-05
2.9480807e-05
1.721791e-05
2.3741694e-05
3.3718117e-05
5.6178492e-05
7.949755e-05
9.1271345e-05
8.1222416e-05
6.2105789e-05
3.9912792e-05
2.2207896e-05
1.1192818e-05
8.5043727e-06
8.0667759e-06
6.0388317e-06
5.8697199e-06
5.8869694e-06
5.9336212e-06
6.2423863e-06
6.2701677e-06
1.297614e-05
2.4984295e-05
4.3828011e-05
7.1485817e-05
9.8036161e-05
0.00010548055
8.9718382e-05
5.3797636e-05
2.951817e-05
1.3405686e-05
2.2261967e-05
3.0460552e-05
5.1816486e-05
7.6063959e-05
9.1342726e-05
8.591958e-05
7.029455e-05
4.8884838e-05
2.9825682e-05
1.6440311e-05
9.9440241e-06
7.0121382e-06
6.0635675e-06
6.2532779e-06
6.508211e-06
6.6286277e-06
6.0966411e-06
1.0103175e-05
1.8830781e-05
3.2710964e-05
5.4497001e-05
8.2227147e-05
0.00010292845
0.00010305779
8.2195585e-05
4.6418426e-05
2.6548884e-05
1.4030252e-05
2.6593224e-05
4.5022971e-05
6.8820677e-05
8.9307472e-05
9.0116992e-05
7.9309074e-05
6.119263e-05
4.1198119e-05
2.5799652e-05
1.6716265e-05
1.1716045e-05
8.6139655e-06
7.1518846e-06
7.0658766e-06
8.1395774e-06
1.1229314e-05
1.8169095e-05
2.8796984e-05
4.5814098e-05
6.9473989e-05
9.3638737e-05
0.000105234
9.7266653e-05
6.9157728e-05
3.4324404e-05
2.2745412e-05
2.2880704e-05
3.6938603e-05
5.7864102e-05
8.3101068e-05
9.2184769e-05
8.7972368e-05
7.521319e-05
5.6738183e-05
3.9629368e-05
2.7572017e-05
2.0889568e-05
1.7187874e-05
1.5149973e-05
1.5015408e-05
1.7229009e-05
2.2329503e-05
3.1133588e-05
4.4407789e-05
6.3708985e-05
8.5726551e-05
0.00010143271
0.00010228695
8.4414927e-05
5.1651458e-05
2.7078471e-05
1.9038185e-05
2.0291017e-05
2.8887212e-05
4.4644633e-05
7.0878745e-05
8.8630366e-05
9.2953611e-05
8.7425783e-05
7.4906355e-05
5.8357777e-05
4.4180287e-05
3.4949094e-05
3.0222395e-05
2.8444207e-05
2.9029944e-05
3.2424549e-05
3.9174414e-05
4.9857922e-05
6.4799487e-05
8.3228566e-05
9.7545744e-05
0.00010187415
9.1357843e-05
6.584145e-05
3.7943682e-05
2.0044718e-05
7.2973654e-06
6.5524949e-06
2.1851146e-05
3.0794394e-05
5.3331925e-05
7.6858028e-05
9.1001277e-05
9.4138824e-05
8.9624385e-05
7.9471686e-05
6.6407207e-05
5.5898746e-05
4.951172e-05
4.7376649e-05
4.8654174e-05
5.3203315e-05
6.1023409e-05
7.2068501e-05
8.5319659e-05
9.6186732e-05
9.9914478e-05
9.35003e-05
7.3575158e-05
4.5881091e-05
1.6594787e-05
8.8464093e-06
1.6091676e-05
1.9711508e-05
3.5433172e-05
5.6592857e-05
7.8425318e-05
9.1005322e-05
9.6074568e-05
9.4168057e-05
8.8050695e-05
8.0536191e-05
7.4062111e-05
7.1244863e-05
7.2075771e-05
7.6258694e-05
8.2872125e-05
9.026632e-05
9.6737664e-05
9.8216629e-05
9.2168337e-05
7.52062e-05
4.9000389e-05
2.5913439e-05
1.9408764e-05
1.0544996e-05
2.0823336e-05
3.6169335e-05
5.5641214e-05
7.4818879e-05
8.8516783e-05
9.5787365e-05
9.7623078e-05
9.65846e-05
9.4258282e-05
9.2556252e-05
9.2485067e-05
9.40047e-05
9.637754e-05
9.7671631e-05
9.5831e-05
8.7503185e-05
7.0804922e-05
4.7119215e-05
2.5833222e-05
1.8132651e-05
8.8481556e-06
1.093573e-05
2.0537615e-05
3.3300316e-05
4.9346714e-05
6.6007477e-05
8.0526638e-05
8.8844356e-05
9.4127424e-05
9.6499806e-05
9.6953574e-05
9.6473957e-05
9.5085232e-05
9.2097044e-05
8.5994465e-05
7.4988665e-05
5.8357543e-05
3.9294398e-05
2.3327818e-05
1.6846707e-05
9.2721489e-06
9.6799451e-06
1.3933226e-05
3.0301297e-05
3.9474844e-05
5.1790918e-05
6.3634484e-05
7.1797811e-05
7.7483678e-05
7.978184e-05
7.902618e-05
7.5340917e-05
6.8436228e-05
5.8254217e-05
4.5518015e-05
3.3464414e-05
2.3589434e-05
1.4140664e-05
8.5287354e-06
1.0042872e-05
1.7314212e-05
2.3515248e-05
2.6588039e-05
3.6260886e-05
4.0845153e-05
4.4924525e-05
4.6506959e-05
4.5625853e-05
4.1849056e-05
3.5269013e-05
2.8970931e-05
2.343751e-05
1.8000471e-05
1.2090438e-05
1.3219125e-05
8.7562971e-06
2.0853432e-05
2.2896605e-05
2.7167262e-05
2.6396894e-05
2.5230734e-05
2.3514941e-05
2.1777057e-05
2.0833818e-05
1.7342238e-05
6.2031218e-06
7.9127563e-06
1.5546318e-05
1.6300743e-05
1.570185e-05
1.1730051e-05
8.0096072e-06
1.8789219e-05
2.8220465e-05
2.9566512e-05
3.0824486e-05
3.1161813e-05
3.0287541e-05
2.635626e-05
1.7657436e-05
1.7255113e-05
2.9948153e-05
3.7016197e-05
4.2742844e-05
4.7339045e-05
4.9836879e-05
5.1471635e-05
5.3310317e-05
5.6213547e-05
5.5542526e-05
4.444083e-05
4.0450835e-05
1.3165048e-05
9.8599981e-06
8.0541156e-06
3.0982636e-05
4.706941e-05
6.2605533e-05
7.5090194e-05
8.3597568e-05
8.8216384e-05
8.8602708e-05
8.5313688e-05
7.9719492e-05
7.5240756e-05
7.4643558e-05
7.2698724e-05
6.9647885e-05
5.8429019e-05
2.4587435e-05
1.9867295e-05
1.0880748e-05
3.3768108e-05
6.1049671e-05
8.6326694e-05
0.00010415609
0.00011550521
0.00012213287
0.00012537352
0.00012557228
0.00012251642
0.00011596995
0.00010656593
9.753045e-05
9.2617939e-05
8.9219014e-05
9.0437371e-05
6.4393054e-05
3.7446088e-05
1.4635022e-05
1.1242399e-05
3.834554e-05
7.3933368e-05
0.000103454
0.00012080886
0.00012979463
0.00013394914
0.00013516579
0.00013491398
0.00013487714
0.00013510863
0.00013430002
0.0001304062
0.00012241469
0.00011349838
0.00010535066
0.00010509361
0.00010081887
7.7392629e-05
3.9596318e-05
1.4536231e-05
9.1209329e-06
3.7806697e-05
7.6005424e-05
0.00010611127
0.00012033442
0.00012535337
0.00012626629
0.00012338628
0.00011837615
0.00011308126
0.00010936546
0.00010963822
0.00011400655
0.00012003048
0.00012468276
0.00012446889
0.00011927051
0.00011496507
0.00011651422
0.00010920752
7.8782119e-05
3.6862233e-05
1.2975954e-05
2.5148957e-05
6.5141283e-05
9.9451592e-05
0.00011255857
0.00011579986
0.00011633633
0.00011229533
0.00010441427
9.4401023e-05
8.4986945e-05
7.8651561e-05
7.6119983e-05
7.8625896e-05
8.7139991e-05
0.00010027088
0.00011209954
0.00011932634
0.00012033982
0.00012250118
0.00012401864
0.00011072502
6.9239202e-05
3.5517533e-05
1.1226754e-05
1.9891174e-05
5.8758508e-05
9.0251785e-05
0.00010121833
0.00010487881
0.00010929989
0.00010910041
0.000101077
8.690097e-05
7.22522e-05
5.9609204e-05
5.0770585e-05
4.6363855e-05
4.6661248e-05
5.2595056e-05
6.5591972e-05
8.4189585e-05
0.00010223077
0.00011494785
0.00012277126
0.00012921604
0.00012797655
9.9479925e-05
5.7109543e-05
2.2338302e-05
4.0472138e-05
7.0594924e-05
8.6289989e-05
9.3575312e-05
0.00010353157
0.00011112759
0.00010537333
8.7684127e-05
6.7343686e-05
4.9161934e-05
3.6010719e-05
2.7984444e-05
2.42956e-05
2.4370331e-05
2.8222939e-05
3.7588933e-05
5.4759998e-05
7.7696719e-05
9.9126722e-05
0.00011588753
0.00012888745
0.00013569886
0.00011996973
7.8805522e-05
3.7692742e-05
1.530651e-05
9.8663662e-06
4.505381e-05
7.1676928e-05
8.2415786e-05
9.5142868e-05
0.00011094458
0.00011321917
9.5499029e-05
7.0740612e-05
4.7688354e-05
3.091069e-05
2.0894586e-05
1.5833476e-05
1.3944547e-05
1.3159212e-05
1.4699025e-05
2.0064715e-05
3.2734714e-05
5.4415469e-05
8.0508513e-05
0.00010385524
0.00012392915
0.00013812325
0.00013229477
9.7040906e-05
4.9323019e-05
2.6789291e-05
2.1399164e-05
5.5643463e-05
6.8967306e-05
8.0431809e-05
0.00010270631
0.00011879186
0.00010908162
8.3315398e-05
5.5511581e-05
3.437577e-05
2.1503001e-05
1.5474591e-05
1.3318724e-05
1.0331945e-05
1.0166337e-05
1.0608694e-05
1.177721e-05
1.9353776e-05
3.7196172e-05
6.3618551e-05
9.1597724e-05
0.00011696122
0.00013758502
0.00013927582
0.00011033532
5.9790811e-05
3.0868856e-05
1.2929721e-05
5.450388e-05
6.4361081e-05
8.5222524e-05
0.00011360415
0.00012260342
0.00010323278
7.2965047e-05
4.6041505e-05
2.8006221e-05
1.7958424e-05
1.3477133e-05
8.7168818e-06
7.7566415e-06
7.7896955e-06
8.25106e-06
1.037885e-05
1.2638199e-05
2.6549667e-05
5.1357545e-05
8.1393787e-05
0.00011056999
0.00013623437
0.00014318501
0.0001189838
6.985614e-05
3.557259e-05
7.9452245e-06
2.9937463e-05
4.9648063e-05
6.4275094e-05
9.3179517e-05
0.00012188048
0.00012300308
9.9019977e-05
6.781649e-05
4.2170949e-05
2.56236e-05
1.5440897e-05
9.3667469e-06
7.8838349e-06
3.675479e-06
3.7615484e-06
6.4050064e-06
8.3988837e-06
1.0210006e-05
2.1205771e-05
4.4445419e-05
7.4994974e-05
0.00010697615
0.0001358523
0.00014550113
0.00012330451
7.552679e-05
4.0195668e-05
1.6093873e-05
3.5277381e-05
4.6251852e-05
6.6549156e-05
9.9826343e-05
0.00012698425
0.00012331913
9.8045402e-05
6.7695364e-05
4.2263966e-05
2.5423592e-05
1.4351155e-05
7.9688223e-06
6.2435949e-06
2.3150201e-06
3.3533807e-06
6.3852072e-06
8.2180911e-06
9.6531176e-06
2.01058e-05
4.2784464e-05
7.3352733e-05
0.00010751615
0.00013763986
0.0001465573
0.00012325161
7.5381403e-05
3.3576473e-05
1.7275951e-05
2.957833e-05
4.3505503e-05
6.7856299e-05
0.00010347793
0.00012956322
0.00012487542
0.00010119983
7.2182569e-05
4.6116373e-05
2.7927526e-05
1.5674586e-05
7.921354e-06
6.5932619e-06
4.3724216e-06
4.8285967e-06
6.3483819e-06
8.5442232e-06
1.0647699e-05
2.3122979e-05
4.621042e-05
7.7168257e-05
0.00011278494
0.00014141461
0.00014591687
0.00011910653
7.0172258e-05
3.4432896e-05
1.7200404e-05
2.8333479e-05
4.0189942e-05
6.7405149e-05
0.00010352714
0.00013000634
0.00012798114
0.00010765315
8.0929869e-05
5.4313349e-05
3.4406889e-05
2.0620419e-05
1.0753644e-05
7.1026283e-06
6.8139548e-06
6.7034575e-06
6.8651459e-06
9.2529598e-06
1.529874e-05
3.071007e-05
5.4996634e-05
8.7119365e-05
0.00012239013
0.00014557154
0.00014217594
0.000109807
6.0100346e-05
3.471511e-05
1.4665951e-05
2.3518974e-05
3.6004437e-05
6.3732993e-05
9.9583487e-05
0.00012831815
0.00013147657
0.00011644337
9.3327373e-05
6.726611e-05
4.579518e-05
3.0223394e-05
1.8490044e-05
1.0985898e-05
8.5794727e-06
8.3376034e-06
1.0161382e-05
1.5167256e-05
2.5649481e-05
4.3933657e-05
7.0148397e-05
0.00010294846
0.0001338897
0.00014733263
0.00013424574
9.7160472e-05
4.9458626e-05
2.5548193e-05
1.473326e-05
3.1232387e-05
5.7152766e-05
9.1537538e-05
0.00012347199
0.00013327442
0.0001261588
0.0001079153
8.4616951e-05
6.244071e-05
4.5769262e-05
3.3227548e-05
2.3865731e-05
1.8821721e-05
1.8210056e-05
2.168377e-05
2.9595139e-05
4.3403603e-05
6.4189662e-05
9.1676601e-05
0.00012152958
0.00014283979
0.00014411712
0.00012086992
7.7232297e-05
3.4546751e-05
2.1497127e-05
2.5828588e-05
4.7914555e-05
7.900378e-05
0.00011413705
0.00013098868
0.00013278095
0.0001221841
0.00010466205
8.3969576e-05
6.6516501e-05
5.4015498e-05
4.5113918e-05
3.9826736e-05
3.909723e-05
4.3487855e-05
5.3306203e-05
6.9108885e-05
9.0703204e-05
0.0001156615
0.00013691909
0.00014503557
0.0001327986
0.00010019288
5.6681839e-05
2.8324846e-05
1.883625e-05
2.081297e-05
3.6896797e-05
6.1839977e-05
9.8859541e-05
0.00012244782
0.00013310045
0.00013300437
0.00012334495
0.00010824399
9.2004467e-05
7.9443597e-05
7.1443757e-05
6.7452919e-05
6.7777656e-05
7.3108663e-05
8.3675499e-05
9.9079398e-05
0.00011741665
0.00013424758
0.00014307488
0.00013729551
0.00011438436
7.7423072e-05
4.107e-05
2.0257776e-05
7.8005553e-06
7.4070679e-06
2.5096624e-05
4.1488745e-05
7.6553719e-05
0.00010615761
0.00012442652
0.00013365278
0.0001358882
0.00012912585
0.00011873265
0.00010805663
0.00010092946
9.7997005e-05
9.9315101e-05
0.00010475834
0.00011386499
0.0001252239
0.00013596029
0.00014214402
0.00013848514
0.00012155994
8.9399615e-05
4.631859e-05
1.6560612e-05
9.7423449e-06
1.6445493e-05
2.333717e-05
4.8688063e-05
8.0722913e-05
0.00010588647
0.00012156896
0.00013377181
0.0001390624
0.00013735246
0.00013249643
0.00012803732
0.00012564714
0.00012641153
0.00012983846
0.000134822
0.00013981368
0.00014173613
0.00013678635
0.00012167104
9.323167e-05
5.4059131e-05
2.462952e-05
1.9816984e-05
1.1144634e-05
2.4311923e-05
4.8439688e-05
7.5915002e-05
9.8329699e-05
0.00011484483
0.00012955069
0.00013766233
0.00014162132
0.00014228414
0.00014188425
0.00014183352
0.00014227071
0.00014214443
0.00013958419
0.00013197807
0.00011596868
8.8116456e-05
5.285988e-05
2.5850906e-05
1.8215705e-05
9.3878306e-06
1.1264609e-05
2.2832126e-05
3.900612e-05
6.6829826e-05
8.3033155e-05
0.00010173153
0.00011539495
0.0001253507
0.00013213098
0.00013495234
0.00013493458
0.00013228396
0.00012638671
0.00011562269
9.8032248e-05
7.283009e-05
4.450013e-05
2.441429e-05
1.8443696e-05
9.5875753e-06
9.9886748e-06
1.5443772e-05
3.5418167e-05
4.7659129e-05
6.1765893e-05
7.8958238e-05
8.862871e-05
9.7741922e-05
0.00010226939
0.00010224147
9.7303444e-05
8.7451044e-05
7.3189464e-05
5.5736479e-05
3.8567723e-05
2.5215447e-05
1.4391427e-05
9.2085751e-06
1.0866004e-05
1.8369798e-05
2.5934084e-05
2.8048099e-05
4.1469025e-05
4.8933582e-05
5.4837604e-05
5.7079647e-05
5.5994654e-05
5.1174606e-05
4.3272365e-05
3.4725338e-05
2.6798689e-05
2.0692252e-05
1.2798609e-05
1.468619e-05
9.2056908e-06
2.0492705e-05
2.3496558e-05
3.1775402e-05
3.2973348e-05
3.2367957e-05
2.9785034e-05
2.6021223e-05
2.3289917e-05
1.8088954e-05
6.9165315e-06
8.4786496e-06
1.5926679e-05
1.6499904e-05
1.5931919e-05
1.3035188e-05
9.561152e-06
2.2420265e-05
3.4322099e-05
3.6836558e-05
3.8901315e-05
3.9185094e-05
3.6382628e-05
2.8144443e-05
1.8564372e-05
1.8811761e-05
3.2052183e-05
3.9962022e-05
4.7170187e-05
5.410102e-05
5.9853024e-05
6.540889e-05
7.1691302e-05
7.6839107e-05
7.6347667e-05
6.1485375e-05
5.1446154e-05
1.5214496e-05
1.0298036e-05
8.3065363e-06
3.1671996e-05
4.900426e-05
6.4060524e-05
7.6212347e-05
8.5030806e-05
9.0424028e-05
9.1983116e-05
9.0770306e-05
8.9070766e-05
9.0115042e-05
9.5260659e-05
9.783456e-05
9.382941e-05
7.7224456e-05
3.101038e-05
2.1678196e-05
1.1229254e-05
3.6650753e-05
6.6215267e-05
9.3529756e-05
0.00011374869
0.0001273845
0.00013573838
0.00013986887
0.00013986883
0.00013570711
0.00012789751
0.00011860991
0.00011237889
0.00011310422
0.00011526476
0.0001175877
8.4196621e-05
4.744344e-05
1.616662e-05
1.1801955e-05
4.3874159e-05
8.6455276e-05
0.00012149294
0.00014298434
0.00015460426
0.00016044798
0.00016295352
0.00016356686
0.00016321834
0.0001618406
0.00015838796
0.00015135086
0.00014085284
0.00013197551
0.000127794
0.00013270264
0.00012805202
9.710879e-05
4.8602822e-05
1.5037283e-05
9.7282061e-06
4.5491447e-05
9.3145168e-05
0.0001303634
0.00014879717
0.00015564817
0.00015737954
0.00015631342
0.00015315339
0.00014914022
0.00014599936
0.00014588715
0.00014886525
0.00015260384
0.00015330423
0.00014914539
0.0001423572
0.00014088099
0.00014558023
0.00013542217
9.6918253e-05
4.3153567e-05
1.3170436e-05
3.1259286e-05
8.2609564e-05
0.00012601789
0.00014312558
0.00014660657
0.00014690965
0.00014537327
0.00013955685
0.00013039387
0.00012063755
0.00011315941
0.00011019637
0.0001132369
0.00012242512
0.00013502337
0.00014507262
0.00014859272
0.00014800505
0.00015213565
0.00015383167
0.00013512604
8.2625767e-05
3.8344436e-05
1.1889242e-05
2.0971639e-05
7.6590732e-05
0.0001190274
0.00013263194
0.00013378424
0.00013636188
0.0001391669
0.00013444644
0.00012170916
0.00010575451
9.1028671e-05
8.0237382e-05
7.4594051e-05
7.494443e-05
8.2649351e-05
9.8513245e-05
0.00011911991
0.00013698868
0.00014716551
0.00015427618
0.00016115277
0.00015654117
0.00011861303
6.3355106e-05
2.3122548e-05
5.1031495e-05
9.6588752e-05
0.0001167076
0.00011980913
0.0001264097
0.00013697548
0.00013718939
0.00012287801
0.00010124317
7.9761163e-05
6.2691181e-05
5.1357202e-05
4.5548847e-05
4.4963358e-05
5.0045857e-05
6.3093331e-05
8.5472662e-05
0.00011246469
0.00013503463
0.00015089301
0.00016295577
0.00016708701
0.00014299422
8.860292e-05
3.8812057e-05
1.5851701e-05
1.0216124e-05
6.2085679e-05
0.00010017488
0.00010778273
0.00011437813
0.0001322934
0.00014245335
0.00013137858
0.00010643972
7.9426339e-05
5.7239518e-05
4.1743951e-05
3.2393277e-05
2.8235398e-05
2.7387504e-05
2.9806153e-05
3.8162857e-05
5.6652717e-05
8.5413907e-05
0.0001163294
0.00014164165
0.00016087505
0.0001718171
0.00015787859
0.00010947259
5.0195536e-05
2.7507235e-05
2.2573431e-05
7.7746067e-05
9.4739133e-05
9.8731311e-05
0.00011862807
0.00014280676
0.00014366176
0.00012103631
9.0188928e-05
6.313867e-05
4.2894391e-05
2.9488754e-05
2.1475064e-05
1.7782545e-05
1.7163961e-05
1.9357982e-05
2.3857547e-05
3.7039122e-05
6.3168847e-05
9.7420322e-05
0.00012994913
0.00015631723
0.00017343083
0.00016656366
0.0001243585
6.1007926e-05
3.0591079e-05
1.5489903e-05
7.7793544e-05
8.4935256e-05
9.77293e-05
0.00013012216
0.00015110602
0.00014091574
0.00011121975
7.9370916e-05
5.3930779e-05
3.3745572e-05
1.987951e-05
1.1585515e-05