/*--------------------------------*- C++ -*----------------------------------*\
| =========                 |                                                 |
| \\      /  F ield         | OpenFOAM: The Open Source CFD Toolbox           |
|  \\    /   O peration     | Version:  2406                                  |
|   \\  /    A nd           | Website:  www.openfoam.com                      |
|    \\/     M anipulation  |                                                 |
\*---------------------------------------------------------------------------*/
FoamFile
{
    version     2.0;
    format      ascii;
    arch        "LSB;label=32;scalar=64";
    class       volScalarField;
    location    "950";
    object      p;
}
// * * * * * * * * * * * * * * * * * * * * * * * * * * * * * * * * * * * * * //

dimensions      [0 2 -2 0 0 0 0];

internalField   nonuniform List<scalar> 
150387
(
0.0024781978
0.0028438369
0.0017116034
0.0014541496
0.0014187628
0.0016454744
0.0030722304
0.0032677637
0.0039745556
0.0018855774
0.00057559989
-0.001023088
-0.0022420809
-0.0032596913
-0.0036949841
-0.0036748012
-0.0031910329
-0.0021102866
-0.00072207358
0.00042309457
0.0016130603
0.0026519764
0.00043489021
-0.002158203
-0.0044020604
-0.0064264096
-0.0080159484
-0.0090993482
-0.009507119
-0.0093283173
-0.0086243282
-0.0074266796
-0.0058538334
-0.0039486401
-0.0019655039
0.00032452621
0.0026830941
0.002981776
0.0017166653
-0.0010289325
-0.0041511758
-0.0071966103
-0.0099523624
-0.012346263
-0.014271494
-0.01558035
-0.016112079
-0.015927777
-0.01508533
-0.013632503
-0.011672537
-0.0092868687
-0.0066044045
-0.0037312879
-0.0011221677
0.0013188021
0.0038880262
0.0019521154
-0.0014627961
-0.0051381375
-0.0089524451
-0.012613253
-0.015952984
-0.018844208
-0.021155208
-0.022743199
-0.023418012
-0.023195706
-0.02217052
-0.020422264
-0.018068571
-0.015203102
-0.011987473
-0.0085539675
-0.0050923981
-0.0018927674
0.00091874628
0.0022677885
-0.0012070213
-0.0053505828
-0.0097437555
-0.014197592
-0.018503018
-0.022501648
-0.026019064
-0.028887615
-0.03091235
-0.031825279
-0.031543665
-0.030239184
-0.028054522
-0.025154793
-0.021690389
-0.017833111
-0.013729518
-0.0095850246
-0.0055037695
-0.0019418755
0.0016172864
0.0031023074
-0.00027366471
-0.0046209819
-0.0094264147
-0.014483389
-0.019620455
-0.024674888
-0.029469894
-0.033812698
-0.037435129
-0.040095958
-0.041422942
-0.041103382
-0.039420125
-0.036621302
-0.032969784
-0.028714054
-0.024071883
-0.019206189
-0.014313527
-0.0095150366
-0.005077601
-0.00095362048
0.0015176302
0.0047549542
0.0011286381
-0.0031019471
-0.0081013906
-0.013532576
-0.019245368
-0.025124883
-0.031019971
-0.036785069
-0.042208819
-0.046917442
-0.050441778
-0.052325811
-0.052074289
-0.049956435
-0.046355539
-0.041671571
-0.036316001
-0.030645894
-0.024858901
-0.019134666
-0.013586829
-0.0084544882
-0.0037934774
-0.00014039567
0.0026677851
-0.0010484469
-0.005934343
-0.011469235
-0.017471147
-0.023849685
-0.030509212
-0.037371355
-0.04435134
-0.051140978
-0.057128361
-0.061657046
-0.064167295
-0.064133226
-0.061608734
-0.057135259
-0.051226082
-0.044477034
-0.037466182
-0.030545523
-0.023870461
-0.017511595
-0.01166969
-0.0063562571
-0.0019293224
0.0019972001
0.0014015809
-0.0031869163
-0.0085848624
-0.014570525
-0.021108175
-0.028130349
-0.035613282
-0.04358902
-0.051964018
-0.060158939
-0.067229389
-0.072421929
-0.075313595
-0.075562838
-0.072906204
-0.067898478
-0.060969731
-0.05282661
-0.044310823
-0.036054569
-0.028322872
-0.021120457
-0.014561502
-0.008681947
-0.0036038581
0.00044528429
0.0044024096
-2.5442276e-05
-0.005051368
-0.010875422
-0.017252897
-0.024279926
-0.03191715
-0.040249487
-0.049380525
-0.059077929
-0.068318127
-0.075947783
-0.081426742
-0.084465711
-0.084752343
-0.082068043
-0.076897857
-0.069516738
-0.060444168
-0.050628125
-0.041047346
-0.032239466
-0.024215528
-0.017004459
-0.01065821
-0.0051636847
-0.0010635542
0.003137761
-0.0014278312
-0.0066218628
-0.012735569
-0.019420924
-0.02686092
-0.035047204
-0.044150035
-0.05429967
-0.064973842
-0.074725179
-0.082613213
-0.088285913
-0.091465525
-0.091642792
-0.088797693
-0.083435104
-0.075839359
-0.066333895
-0.055675444
-0.045043832
-0.035289946
-0.026572858
-0.018834221
-0.012123159
-0.0063249968
-0.001719534
0.0015983179
0.0022827587
-0.0024011957
-0.0077925156
-0.014070681
-0.020969744
-0.028719581
-0.037320039
-0.046997158
-0.057859265
-0.069022243
-0.078924285
-0.086939643
-0.092767086
-0.096207049
-0.096201754
-0.092972859
-0.087398384
-0.079610436
-0.069894096
-0.058833989
-0.04753694
-0.037152967
-0.027953164
-0.019901995
-0.012974927
-0.0070921828
-0.0023421806
0.0013347624
0.0018174508
-0.0026806523
-0.0084276232
-0.014793648
-0.021808895
-0.02973033
-0.038540433
-0.048505834
-0.059660047
-0.070839796
-0.080640297
-0.088732119
-0.095557365
-0.098960857
-0.097286397
-0.094236286
-0.088536415
-0.080654259
-0.070867828
-0.059696263
-0.048178727
-0.037625423
-0.028336721
-0.020241687
-0.013250829
-0.0072155587
-0.0025494471
0.0008372087
0.0018904634
-0.0027811601
-0.0085066148
-0.014884623
-0.021874788
-0.029771563
-0.038500097
-0.048330408
-0.059206221
-0.069935056
-0.079346886
-0.087027796
-0.093292863
-0.098825471
-0.095831579
-0.092749014
-0.08719769
-0.079439054
-0.069742567
-0.05867586
-0.047380712
-0.037045161
-0.027914827
-0.019935354
-0.013011554
-0.0071755394
-0.0023861971
0.00095700796
0.0026248142
-0.0022322529
-0.0079986878
-0.014272664
-0.021104006
-0.028736576
-0.037042948
-0.046337906
-0.056564236
-0.06670709
-0.075666013
-0.082896535
-0.088151548
-0.090947319
-0.091025193
-0.088570089
-0.083470342
-0.076103544
-0.066761516
-0.056087681
-0.045284211
-0.035389801
-0.026611707
-0.018916624
-0.012185498
-0.0065230153
-0.0019536764
0.0011735102
0.0035617252
-0.0013395879
-0.0068672579
-0.012908689
-0.01944908
-0.026644561
-0.034395521
-0.042954111
-0.052238074
-0.061574886
-0.069955853
-0.076676615
-0.081438065
-0.083975107
-0.084278668
-0.082195687
-0.077567522
-0.070675622
-0.061872331
-0.051889821
-0.041905842
-0.032721849
-0.024508009
-0.017250738
-0.010858558
-0.0054431987
-0.0016089232
0.0014021359
0.0038904147
-0.00017124361
-0.0052287347
-0.010925648
-0.017084374
-0.023760211
-0.030867399
-0.038496662
-0.046656634
-0.054935883
-0.062547057
-0.068732166
-0.073050516
-0.075359893
-0.075769143
-0.073999839
-0.06981572
-0.063474277
-0.055402342
-0.046431468
-0.037524855
-0.029255661
-0.021763532
-0.015065619
-0.0091372327
-0.004054807
-0.00051258229
0.0011139011
-0.0032431633
-0.0085220158
-0.014171777
-0.02027555
-0.026655902
-0.033343604
-0.040323317
-0.047370893
-0.053963205
-0.05946994
-0.063384904
-0.065488352
-0.065951307
-0.064441569
-0.0607041
-0.055030297
-0.047948489
-0.040206393
-0.032507385
-0.025242919
-0.018546113
-0.012476428
-0.007097237
-0.0024992232
0.00058403493
0.0024926844
-0.0010331465
-0.0057782641
-0.010839418
-0.016325145
-0.021988343
-0.027814058
-0.033712673
-0.039544147
-0.044989283
-0.04960833
-0.052979532
-0.054857161
-0.055312062
-0.054080275
-0.05088868
-0.046088193
-0.040169786
-0.033719109
-0.027208835
-0.020934005
-0.015042597
-0.0096258677
-0.0049407871
-0.0010245317
0.0027286294
0.0014167911
-0.0027745478
-0.0072333936
-0.012091572
-0.017076592
-0.022127004
-0.027124938
-0.031939459
-0.0363496
-0.040072457
-0.04280802
-0.044354081
-0.044695269
-0.043765444
-0.041226347
-0.037367669
-0.03259829
-0.027321442
-0.021879347
-0.016513542
-0.011399493
-0.0066445113
-0.0024406629
0.00025057406
0.0035487068
-5.2978771e-05
-0.0036181022
-0.0078123962
-0.012119851
-0.01647142
-0.020721548
-0.024741978
-0.028354175
-0.031367044
-0.033568259
-0.03480548
-0.035034958
-0.034305162
-0.032353113
-0.029337336
-0.02553311
-0.021238795
-0.016700197
-0.012157084
-0.0077683257
-0.0038445813
-0.00041278081
0.0010191589
0.0027026336
-0.00033719386
-0.003699555
-0.0073511751
-0.011030517
-0.014615278
-0.017990911
-0.020989455
-0.023471256
-0.025280558
-0.02630668
-0.026491181
-0.0258998
-0.0244091
-0.022040435
-0.019001704
-0.015499263
-0.011723196
-0.0079145091
-0.0043733675
-0.001041815
0.0019417952
0.0023923381
-0.000240508
-0.002992927
-0.0059996024
-0.00897955
-0.011798734
-0.014295863
-0.016362488
-0.017867967
-0.018731171
-0.018906661
-0.018440639
-0.017301913
-0.015453878
-0.013054771
-0.010235417
-0.0071019365
-0.004145859
-0.0012004149
0.0012337738
0.0026751754
0.00076862018
-0.0017139477
-0.0039936622
-0.0062564024
-0.0082691651
-0.0099778683
-0.011239738
-0.011991222
-0.012196875
-0.011876209
-0.01101512
-0.0095488424
-0.0076511802
-0.0054611356
-0.0028033451
-0.00069639
0.0021587584
0.0032609567
0.0016081524
0.00018010534
-0.0015968927
-0.0032546001
-0.004647664
-0.005645406
-0.0062617174
-0.0064502187
-0.006176757
-0.0055164433
-0.004372213
-0.0030164179
-0.001524832
0.00026892008
0.00075363574
0.0035263122
0.0016473031
0.00035952245
-0.00039302943
-0.0010434032
-0.0015636999
-0.0017220499
-0.0014875832
-0.0012348197
-0.00034993012
0.00052282447
0.0021246004
0.0029865373
0.0023830069
0.0020556152
0.0018791225
0.002937128
0.0017894858
0.0036488801
0.003555521
0.0033558744
0.0015198818
0.0012371763
0.0011746379
0.0013130479
0.0031935016
0.0036131176
0.0038011555
0.00061387603
-0.00054848469
-0.0020832735
-0.0032798142
-0.0043789783
-0.0046792853
-0.0045057426
-0.0038664025
-0.002592241
-0.0011621938
-5.6778358e-05
0.0017350126
0.0038576427
0.0036791216
0.0022462796
-0.001046539
-0.0034985703
-0.0057558043
-0.0077633302
-0.0092450072
-0.010165844
-0.010436826
-0.010135017
-0.0093085606
-0.0079784486
-0.006379448
-0.0043178362
-0.0026337887
0.00020279679
0.0029239649
0.0039329557
0.00025932108
-0.0023655522
-0.0058349435
-0.0088845124
-0.011579373
-0.013884432
-0.015632484
-0.016798347
-0.017232208
-0.016942882
-0.015991995
-0.014397717
-0.012301062
-0.0097580895
-0.0068920362
-0.0039070389
-0.0015888839
0.0016846654
0.0042601834
0.00042125379
-0.002652393
-0.0066898521
-0.010649778
-0.014352312
-0.017705979
-0.020561858
-0.022734814
-0.024120127
-0.024663343
-0.02429072
-0.023118743
-0.021211715
-0.018706194
-0.015684177
-0.01234623
-0.0087975624
-0.005056134
-0.0020561245
0.0014893049
0.004759547
0.00063829414
-0.0024391816
-0.0070090047
-0.011527195
-0.016103368
-0.02050206
-0.024552492
-0.028072111
-0.030843454
-0.032614992
-0.033309336
-0.032826735
-0.03134008
-0.028956006
-0.025852245
-0.022183495
-0.018152457
-0.013883849
-0.0096677854
-0.0052885533
-0.0021155956
0.0015274888
0.0024245312
-0.001479729
-0.0061695095
-0.011121512
-0.016348038
-0.021662309
-0.026873575
-0.031820755
-0.036269345
-0.039885102
-0.042303385
-0.043231137
-0.042602891
-0.040686423
-0.037641076
-0.033728435
-0.029209069
-0.024352569
-0.019297062
-0.014306946
-0.0093867251
-0.00488408
-0.00052900536
0.0011183155
0.0048991616
-0.00049909277
-0.0044838472
-0.009749401
-0.015353631
-0.021278213
-0.027376927
-0.033537522
-0.039591184
-0.045214958
-0.049911618
-0.05319924
-0.05447794
-0.053731145
-0.051311733
-0.047442257
-0.042472165
-0.036811374
-0.030869984
-0.02486298
-0.019026009
-0.013374738
-0.0083203032
-0.0035746342
-0.00055107205
0.0017263429
-0.0022429917
-0.0074111475
-0.013127003
-0.019362092
-0.025979832
-0.032953998
-0.04022351
-0.047582254
-0.054535501
-0.0603738
-0.06449068
-0.066280928
-0.065625437
-0.062729201
-0.058008651
-0.051864515
-0.044856548
-0.037585075
-0.030417613
-0.023621731
-0.017147138
-0.011390786
-0.0058867234
-0.0018938337
0.0016468107
0.005262196
0.00043795473
-0.0044346749
-0.010087596
-0.016255694
-0.023049609
-0.030359808
-0.038261485
-0.046716942
-0.055402633
-0.063562344
-0.070296313
-0.074983393
-0.077135418
-0.076614237
-0.073548313
-0.068277312
-0.061159336
-0.052855484
-0.044181146
-0.035733704
-0.027889147
-0.020591434
-0.014095063
-0.0081208355
-0.0029637152
0.00093397444
0.0040904462
-0.0010948272
-0.0062100657
-0.01235063
-0.018904808
-0.026205555
-0.034180214
-0.042983122
-0.052551021
-0.062359641
-0.07135589
-0.078615184
-0.083684699
-0.086068115
-0.085551201
-0.082422176
-0.076891928
-0.069214365
-0.059970311
-0.050096499
-0.040443732
-0.031578125
-0.023515374
-0.016375765
-0.010037935
-0.004372457
-0.0012566399
0.002740828
-0.0025320551
-0.0077457185
-0.014155525
-0.021007638
-0.028718637
-0.037250283
-0.046803156
-0.05725743
-0.067811193
-0.077252626
-0.0850108
-0.090377944
-0.092902912
-0.092206182
-0.088975311
-0.083136237
-0.07516515
-0.06538837
-0.054692869
-0.044103719
-0.034394789
-0.025704334
-0.018065273
-0.011418421
-0.0054559876
-0.0019270821
0.0023679495
0.0020867651
-0.0036024261
-0.008899809
-0.015371494
-0.022437369
-0.030423976
-0.039338556
-0.04940158
-0.060406497
-0.071261073
-0.080923208
-0.088849557
-0.092780873
-0.095994361
-0.096161174
-0.092838563
-0.08678293
-0.078635808
-0.068605847
-0.057459768
-0.046293351
-0.03604851
-0.026966193
-0.019074752
-0.012228216
-0.006468893
-0.0025682525
0.0020670222
0.00055073184
-0.0033535193
-0.009476484
-0.015920048
-0.023104144
-0.031215048
-0.040299656
-0.050593717
-0.061723886
-0.072458851
-0.08203589
-0.089841143
-0.095920565
-0.099190991
-0.097255265
-0.093569154
-0.087538894
-0.079334638
-0.069295171
-0.05805108
-0.046759897
-0.036403471
-0.027241829
-0.019271842
-0.012424326
-0.0061908981
-0.0022113991
0.0015327901
0.0016558668
-0.0037304555
-0.0093875481
-0.015835544
-0.022957703
-0.030977581
-0.039923812
-0.050029474
-0.060799454
-0.071138742
-0.080241007
-0.087365139
-0.093620467
-0.098927752
-0.09593726
-0.091510403
-0.085667223
-0.077582401
-0.067667848
-0.056629539
-0.045614802
-0.035529934
-0.026567539
-0.018786297
-0.011979794
-0.0064623784
-0.0026005329
0.0018626009
0.002389466
-0.0028447412
-0.008741587
-0.015009373
-0.021948627
-0.029700019
-0.038251707
-0.047767179
-0.057830619
-0.067585198
-0.076187331
-0.083144425
-0.087995414
-0.090384412
-0.089752587
-0.086940296
-0.081398781
-0.07367544
-0.064116102
-0.05358765
-0.043164951
-0.033599565
-0.02504555
-0.017594092
-0.01094493
-0.0055478932
-0.0020657589
0.0024492006
0.0034639773
-0.0018960093
-0.0075256557
-0.013581358
-0.020173616
-0.027463874
-0.035352866
-0.044029168
-0.053167817
-0.06213256
-0.07012371
-0.076517073
-0.081062956
-0.083360935
-0.082994864
-0.080284404
-0.075116562
-0.067839489
-0.058879937
-0.049158841
-0.039593309
-0.030767572
-0.022807174
-0.015808026
-0.009519279
-0.0041644139
-0.001452758
0.0040292366
-0.00059800075
-0.0057633335
-0.011565543
-0.017670507
-0.0244101
-0.031530958
-0.039227371
-0.047257984
-0.055203652
-0.062405647
-0.068255832
-0.072339598
-0.074457564
-0.074295483
-0.071857226
-0.067119769
-0.060448154
-0.0523648
-0.043704413
-0.035187209
-0.027255089
-0.020019035
-0.013569987
-0.007819735
-0.0027082497
-0.00077595092
0.000410401
-0.0036996521
-0.0091119756
-0.014613495
-0.02073331
-0.02705906
-0.033760408
-0.040629579
-0.04741687
-0.053631171
-0.058783182
-0.062470545
-0.064440014
-0.064360551
-0.062196493
-0.057976888
-0.052103828
-0.045099207
-0.037636976
-0.030251689
-0.0232698
-0.016808332
-0.010960361
-0.0057400939
-0.0015677213
0.0015316431
0.0031236175
-0.0014797111
-0.0062728424
-0.01114848
-0.016614296
-0.022184509
-0.02797266
-0.03376534
-0.039418555
-0.044577766
-0.048892544
-0.052024727
-0.053745221
-0.053765162
-0.051964422
-0.048404147
-0.043481364
-0.037640925
-0.03138804
-0.02510798
-0.01905099
-0.013375077
-0.0080909299
-0.0039082329
-0.0012511879
0.003078698
0.004141951
0.001512696
-0.0030127615
-0.0073807424
-0.012244048
-0.017095518
-0.022097252
-0.026978039
-0.031657397
-0.035866834
-0.039371193
-0.041913457
-0.043319446
-0.043378711
-0.041956082
-0.03909653
-0.035124443
-0.030381822
-0.025226126
-0.019932241
-0.014731103
-0.009821102
-0.0051246299
-0.0011827642
0.00015766619
0.0031638749
-0.00047870193
-0.0034802137
-0.0078693182
-0.012023991
-0.016312014
-0.020445393
-0.024354207
-0.027810909
-0.030665161
-0.032715267
-0.033835734
-0.033892236
-0.032801272
-0.030575925
-0.027440883
-0.023635041
-0.01940052
-0.014958115
-0.010549454
-0.0061520873
-0.002807633
-0.00044579749
0.0029872491
-0.00055821076
-0.0034729942
-0.0072040909
-0.01080961
-0.014260007
-0.017524421
-0.020378655
-0.022734293
-0.024422806
-0.025357277
-0.025442843
-0.024602014
-0.022868792
-0.020375891
-0.017307046
-0.013840538
-0.010096671
-0.0062515404
-0.0031510898
-0.0010201622
0.0021412902
0.0028221094
-0.00047866496
-0.002646428
-0.0056710543
-0.0086173004
-0.011366182
-0.013749681
-0.015727054
-0.017129895
-0.017911077
-0.017999594
-0.017348686
-0.016013958
-0.014074397
-0.011679271
-0.0088749714
-0.0056605737
-0.0031131127
-0.0010623228
0.0017253021
0.002838446
0.0010990546
-0.001794998
-0.0035500115
-0.0057759674
-0.0076237204
-0.0092734623
-0.010474129
-0.011193298
-0.011378401
-0.010912901
-0.0098484965
-0.0082354898
-0.0062963092
-0.0042170506
-0.0012169539
-0.00047978591
0.001987562
0.0035143712
0.001810927
0.0002386382
-0.0010466426
-0.0026531589
-0.0041717176
-0.0051570847
-0.0057321008
-0.0058152562
-0.0051354835
-0.0043000514
-0.0031323295
-0.0023010748
-0.001415421
0.0014792715
0.0038911139
0.0016152981
0.00064219074
-7.1480202e-05
-0.00076265048
-0.0012753823
-0.0014328348
-0.0012899195
-0.00081873969
-0.00021187752
0.0019208903
0.0014224924
0.0035978636
0.0030549871
0.0024188245
0.0026645067
0.0025609659
0.003306621
0.0034190952
0.0034340918
0.0012532735
0.0010018834
0.00092373478
0.0010176189
0.0031093552
0.0034252848
0.0034873477
0.00033644025
-0.00071890523
-0.0021902715
-0.0034198057
-0.0046347943
-0.0049724596
-0.0047752389
-0.0040698892
-0.0026757578
-0.0012509815
-0.00017878759
0.0017935802
0.0039914886
0.0035323417
0.0021873239
-0.0011909604
-0.0036629838
-0.0058929248
-0.0079228883
-0.0094385072
-0.010373475
-0.010587766
-0.01022497
-0.0093566144
-0.0079972572
-0.0064180556
-0.0043640868
-0.0027680636
0.00010789462
0.0032999123
0.0038772306
5.0605502e-05
-0.0024888731
-0.006011429
-0.009092281
-0.011784295
-0.014091309
-0.015833332
-0.016992025
-0.017404824
-0.01707451
-0.016069581
-0.01441253
-0.012279528
-0.0097208518
-0.0068558018
-0.0038796326
-0.0017089887
0.0018018818
0.0042487606
0.00032588157
-0.0026024158
-0.0067143799
-0.010756669
-0.014505379
-0.017874487
-0.020741988
-0.022926294
-0.024298339
-0.024821109
-0.024432132
-0.0232328
-0.021277075
-0.018720503
-0.015647783
-0.012280332
-0.0087257056
-0.0049763094
-0.0021593707
0.0014711318
0.0048065177
0.00047085048
-0.0023780175
-0.0070198289
-0.011593837
-0.016218045
-0.020642883
-0.024711847
-0.028246502
-0.031021258
-0.032769763
-0.033432679
-0.032954246
-0.031474122
-0.029069118
-0.025920199
-0.022181058
-0.018093381
-0.01379069
-0.0095852847
-0.0052115117
-0.0023027686
0.0014817174
0.0024025559
-0.0014540834
-0.0061492357
-0.011126005
-0.016394583
-0.021748516
-0.02700831
-0.03200186
-0.036470637
-0.04007082
-0.042447246
-0.043311098
-0.042679294
-0.040801598
-0.03777816
-0.033852861
-0.029273833
-0.024339839
-0.019220164
-0.014232005
-0.0093056949
-0.0049322528
-0.00059020821
0.00062219548
0.005081574
-0.00064925431
-0.0044720465
-0.0097443688
-0.015381605
-0.021347283
-0.027508284
-0.033739384
-0.039835726
-0.045434449
-0.050042309
-0.053215807
-0.054400484
-0.053658448
-0.051331149
-0.047542833
-0.042615036
-0.036936362
-0.030926202
-0.024830437
-0.018970505
-0.013318073
-0.0083475946
-0.0036509659
-0.00089255884
0.0016409509
-0.0022810857
-0.0073950993
-0.013137266
-0.019413423
-0.026096991
-0.033150522
-0.040485642
-0.047826724
-0.054649636
-0.060308538
-0.064282941
-0.065934729
-0.065216674
-0.062465912
-0.057922227
-0.051920904
-0.044981864
-0.037693225
-0.030441622
-0.023591234
-0.017102023
-0.011405169
-0.0058988901
-0.0020240581
0.0014394558
0.0051928213
0.00037362843
-0.0044681981
-0.010091894
-0.016304238
-0.023153375
-0.030536864
-0.038509211
-0.046980801
-0.055536821
-0.063455848
-0.069992295
-0.074574544
-0.076649584
-0.076064389
-0.073036914
-0.067899534
-0.060980819
-0.052858596
-0.044269874
-0.035789661
-0.027881133
-0.020552676
-0.014083649
-0.008071342
-0.002979775
0.00091024767
0.0042151288
-0.0011780592
-0.0062282549
-0.012386182
-0.01899428
-0.026353553
-0.034389325
-0.043233049
-0.05273703
-0.062303274
-0.071041397
-0.078211826
-0.08328665
-0.085671555
-0.085103899
-0.081904746
-0.076369347
-0.068810901
-0.059776271
-0.050083153
-0.04048014
-0.031576205
-0.023482862
-0.016355861
-0.0099915748
-0.00429477
-0.0014400221
0.002417207
-0.0027375822
-0.0078020627
-0.014251763
-0.021142454
-0.028892016
-0.037461909
-0.047014329
-0.057306542
-0.067566637
-0.076844933
-0.084647174
-0.08992575
-0.092573999
-0.091875806
-0.088570429
-0.082659708
-0.074680949
-0.065034833
-0.054547389
-0.04407869
-0.034378358
-0.025674293
-0.018043967
-0.011393513
-0.0053809732
-0.0022184394
0.0022480255
0.0019311067
-0.0038670944
-0.0090123395
-0.015519038
-0.022603082
-0.030601218
-0.039530376
-0.04954155
-0.060303685
-0.070889125
-0.080529461
-0.088536174
-0.092453276
-0.095852239
-0.095965235
-0.092483051
-0.086428298
-0.078192605
-0.068171475
-0.05719909
-0.04619143
-0.035998308
-0.026924491
-0.019055461
-0.012217584
-0.0064957118
-0.0027286629
0.0022119007
0.00020245861
-0.0035711639
-0.0096661592
-0.016101089
-0.02328664
-0.031386734
-0.04047463
-0.050684615
-0.061576684
-0.072130131
-0.081749658
-0.089537828
-0.095959607
-0.099208002
-0.097251034
-0.093331751
-0.087251564
-0.07892382
-0.068815933
-0.057723848
-0.046601525
-0.036316305
-0.027185298
-0.019242398
-0.012409058
-0.0061841174
-0.0023012465
0.001566784
0.0014569456
-0.0040116737
-0.0096166023
-0.01604767
-0.023150332
-0.031166508
-0.040132561
-0.050165651
-0.060735639
-0.070905414
-0.080026437
-0.086996692
-0.093675718
-0.098965588
-0.095976849
-0.091326499
-0.085382392
-0.077178095
-0.06722336
-0.056353885
-0.04549511
-0.035463359
-0.02652798
-0.018756892
-0.011913336
-0.0065231441
-0.0025054707
0.001930096
0.002124336
-0.0030023298
-0.0089555943
-0.015221223
-0.022146759
-0.029916963
-0.03850351
-0.047971566
-0.057866509
-0.067430734
-0.07597239
-0.082940367
-0.087823108
-0.090209693
-0.08952903
-0.086728963
-0.081087252
-0.073286502
-0.063785976
-0.053438312
-0.043121821
-0.033577608
-0.025022262
-0.017551867
-0.010830177
-0.0055930875
-0.0020454277
0.0024228367
0.0034458891
-0.0020155763
-0.0076948258
-0.013793069
-0.020365962
-0.027681118
-0.035619092
-0.044294559
-0.053312092
-0.062086455
-0.069939693
-0.076284099
-0.080864954
-0.083205978
-0.08283699
-0.080056456
-0.07480566
-0.067520185
-0.058698222
-0.049130792
-0.039617117
-0.030780467
-0.02278738
-0.015741205
-0.0093788778
-0.0041299602
-0.0013406746
0.004148189
-0.00076639812
-0.0059021923
-0.011767442
-0.017846582
-0.024613113
-0.031786618
-0.039523399
-0.047498753
-0.055300698
-0.062334265
-0.068063728
-0.072099316
-0.074222308
-0.074070161
-0.071607223
-0.066865772
-0.060273208
-0.052337093
-0.043771344
-0.035257538
-0.027284441
-0.019993229
-0.013487553
-0.0077030111
-0.0026649
-0.00073112398
0.00012325746
-0.0038661048
-0.0093114689
-0.014763071
-0.020909943
-0.027273327
-0.034036175
-0.040909389
-0.047629922
-0.053718265
-0.058726025
-0.062286042
-0.064194877
-0.064150461
-0.062025265
-0.057866801
-0.05209595
-0.045189122
-0.037754045
-0.030329855
-0.023282804
-0.016759169
-0.01086414
-0.005657576
-0.0015261071
0.0015208086
0.0031967295
-0.0016431085
-0.0064405275
-0.01124596
-0.016744586
-0.022334305
-0.028183552
-0.034009638
-0.039654888
-0.044756587
-0.048979911
-0.051999285
-0.053637069
-0.053675994
-0.051937197
-0.048445514
-0.043590646
-0.037782847
-0.031503948
-0.025156839
-0.019026158
-0.013295549
-0.0079826276
-0.0039431939
-0.001249523
0.0029412024
0.0043208158
0.0014309858
-0.0031328088
-0.0073922217
-0.012304707
-0.017173252
-0.02222382
-0.027142021
-0.031837735
-0.036028019
-0.039491373
-0.041973907
-0.04332288
-0.043393882
-0.042024157
-0.039203419
-0.035253019
-0.030494784
-0.02528401
-0.019916272
-0.014652225
-0.0097080608
-0.0050021933
-0.0011111816
0.00026449071
0.0031642886
-0.00068539146
-0.003410751
-0.0078499428
-0.012025474
-0.016358568
-0.020522917
-0.024452969
-0.027906825
-0.030743859
-0.032764679
-0.033857327
-0.033927822
-0.032871088
-0.030659638
-0.02752207
-0.023688466
-0.019403065
-0.014900664
-0.010438264
-0.0059941513
-0.0028311858
-0.00019222069
0.0030004549
-0.00062449664
-0.0033599237
-0.0071442853
-0.010783487
-0.014259884
-0.01754896
-0.020409201
-0.022765867
-0.024443704
-0.025365047
-0.025453572
-0.024625566
-0.022888868
-0.020382001
-0.017291155
-0.013787736
-0.0099817302
-0.0061046031
-0.0031583257
-0.00086266768
0.0022164912
0.002907284
-0.00056599815
-0.0025498327
-0.0055934059
-0.0085506228
-0.011318441
-0.013711022
-0.01571178
-0.017128371
-0.017915343
-0.01800216
-0.017343982
-0.016004087
-0.01406388
-0.01167681
-0.0088600682
-0.0056295751
-0.0032046304
-0.00096964286
0.0019766919
0.0029719183
0.0011676571
-0.0018439352
-0.0034803582
-0.0057112759
-0.0075365858
-0.0092029594
-0.010423177
-0.011174866
-0.011380108
-0.010885367
-0.0097929513
-0.0081698087
-0.0062681958
-0.0042103383
-0.0011887053
-0.00033731545
0.0019564996
0.0035700525
0.0019576667
0.00026128031
-0.0010136495
-0.0026222184
-0.0042314441
-0.0052557319
-0.0058264803
-0.0058636116
-0.0050754196
-0.0042285433
-0.0031501982
-0.002402721
-0.0013710886
0.0016938008
0.0039819041
0.0016760508
0.00076799019
3.167365e-05
-0.00062838489
-0.0011388558
-0.0013094799
-0.0012924708
-0.00068201295
-0.0002230531
0.0020538287
0.001489114
0.0036143893
0.0031930873
0.0025349306
0.0028191083
0.0026630799
0.0031271515
0.0031883231
0.0032666446
0.00094651781
0.00071668732
0.00065385238
0.00077163045
0.0029545796
0.0032878829
0.0032974407
-9.4738377e-06
-0.00096914724
-0.002442731
-0.0036680279
-0.0049270855
-0.0052521311
-0.0050095377
-0.0042685609
-0.0027922238
-0.0013292625
-0.00028690284
0.0017686635
0.0040125985
0.0032405176
0.0022042885
-0.0013274954
-0.0038866409
-0.0061458052
-0.008206474
-0.0097278318
-0.010638599
-0.010779897
-0.010348751
-0.0094323527
-0.0080333082
-0.0064607262
-0.004383221
-0.0028671788
9.8294555e-05
0.0033184858
0.0035893894
-0.00012483555
-0.0026614148
-0.0063115924
-0.0094495524
-0.012142153
-0.014439544
-0.016161059
-0.017294274
-0.017656418
-0.017261893
-0.016191352
-0.014465986
-0.01229713
-0.0097090558
-0.0068421457
-0.0038212351
-0.0018000668
0.0017842765
0.0040206386
0.00027090111
-0.0026003101
-0.0068398006
-0.010999097
-0.014802673
-0.018196641
-0.021077428
-0.023263404
-0.024616441
-0.025098608
-0.024654482
-0.023395764
-0.021373994
-0.01876689
-0.01564527
-0.012262781
-0.0086778593
-0.0049024192
-0.0021945976
0.0014243212
0.0046082754
0.00035117768
-0.0023384127
-0.007141964
-0.011814652
-0.01651573
-0.020985948
-0.025079189
-0.028620452
-0.031389608
-0.033119762
-0.033760306
-0.033249085
-0.03172648
-0.029260945
-0.026047725
-0.022239244
-0.018109849
-0.013761014
-0.0095529559
-0.0051059448
-0.0023656751
0.0014467283
0.0025219503
-0.001381207
-0.0061805145
-0.011248327
-0.016600327
-0.022026134
-0.02733736
-0.032352659
-0.036813839
-0.040387808
-0.042736076
-0.04358574
-0.042948622
-0.04106317
-0.038015171
-0.034049659
-0.029405277
-0.02441551
-0.019239072
-0.014241413
-0.0092378701
-0.0049252933
-0.00046032261
0.00011784698
0.0051408485
-0.00075208554
-0.0044936307
-0.0098308014
-0.015543192
-0.021587285
-0.027823612
-0.034098257
-0.040182265
-0.045723057
-0.05025462
-0.05336276
-0.054521101
-0.053783705
-0.051475903
-0.047708117
-0.042796993
-0.037101706
-0.031055118
-0.024902451
-0.019031072
-0.013313888
-0.0083827955
-0.0035898536
-0.0010160001
0.0016019584
-0.0022848953
-0.0074223534
-0.013222964
-0.019585444
-0.026363235
-0.033496516
-0.040841955
-0.048111166
-0.054825539
-0.060381406
-0.064295499
-0.065884468
-0.065152963
-0.062426664
-0.057915791
-0.051976612
-0.045089348
-0.037823222
-0.03054405
-0.023686351
-0.017137819
-0.011466402
-0.0058558052
-0.0020943255
0.0012697217
0.005116294
0.00031073354
-0.0045276525
-0.010159167
-0.016425702
-0.023372201
-0.030858201
-0.038886886
-0.04730809
-0.055735684
-0.063531476
-0.069992578
-0.074530734
-0.076572565
-0.075972949
-0.072924108
-0.06777948
-0.060904495
-0.052857619
-0.044344319
-0.035885982
-0.027989732
-0.02061102
-0.014140398
-0.008016493
-0.0029621046
0.00091307152
0.0041662585
-0.001305396
-0.0062917323
-0.012476436
-0.019146727
-0.026616165
-0.034748344
-0.043608839
-0.053007891
-0.062429117
-0.071078308
-0.078235193
-0.083296713
-0.085668214
-0.085072551
-0.081827805
-0.076249588
-0.068681528
-0.059687923
-0.050081908
-0.040543057
-0.031679572
-0.023554233
-0.016409522
-0.0099642644
-0.0042314731
-0.0015252837
0.0021840463
-0.0029559427
-0.0079173269
-0.014396777
-0.021347611
-0.029203532
-0.037848015
-0.047376784
-0.057536751
-0.067673805
-0.076905655
-0.084757415
-0.08994522
-0.092623501
-0.091927529
-0.088603341
-0.082608923
-0.074567873
-0.064907135
-0.054485509
-0.04410299
-0.034468
-0.025752041
-0.018088092
-0.011387157
-0.00528091
-0.0023351072
0.0019311737
0.0017191485
-0.0041159807
-0.0091892035
-0.015716802
-0.022857343
-0.030948432
-0.039928539
-0.049886165
-0.060511847
-0.070995994
-0.08063517
-0.088677501
-0.09244398
-0.095790227
-0.095946893
-0.092540684
-0.086447107
-0.078126057
-0.068046052
-0.05710648
-0.046188838
-0.036070928
-0.026992887
-0.019090294
-0.012217677
-0.0064710496
-0.0027851921
0.0022030352
-0.00021688879
-0.0037695101
-0.0099046473
-0.01634675
-0.023583731
-0.03176267
-0.040878827
-0.051012834
-0.061770881
-0.07224018
-0.081895171
-0.089651506
-0.095992711
-0.099209606
-0.097248528
-0.093455334
-0.087304432
-0.078881276
-0.06870528
-0.057641516
-0.046608487
-0.036391407
-0.027247699
-0.019256252
-0.012381972
-0.0060846984
-0.0023813729
0.0015495256
0.0011851497
-0.0043322813
-0.0099087369
-0.016351032
-0.023485536
-0.031567969
-0.040536694
-0.050484785
-0.060927715
-0.071033358
-0.0801964
-0.087090762
-0.093752057
-0.098939834
-0.096062168
-0.091519555
-0.085464703
-0.077151608
-0.067131593
-0.05630187
-0.04553072
-0.035551587
-0.026582196
-0.018753871
-0.011840536
-0.0064825571
-0.0024768885
0.0019323758
0.0018470074
-0.0032639666
-0.0092678255
-0.015549222
-0.022497691
-0.030331075
-0.038915301
-0.048314409
-0.05809421
-0.067597041
-0.076165249
-0.083168794
-0.088063553