/*--------------------------------*- C++ -*----------------------------------*\
| =========                 |                                                 |
| \\      /  F ield         | OpenFOAM: The Open Source CFD Toolbox           |
|  \\    /   O peration     | Version:  2406                                  |
|   \\  /    A nd           | Website:  www.openfoam.com                      |
|    \\/     M anipulation  |                                                 |
\*---------------------------------------------------------------------------*/
FoamFile
{
    version     2.0;
    format      ascii;
    arch        "LSB;label=32;scalar=64";
    class       volScalarField;
    location    "600";
    object      epsilon;
}
// * * * * * * * * * * * * * * * * * * * * * * * * * * * * * * * * * * * * * //

dimensions      [0 2 -3 0 0 0 0];

internalField   nonuniform List<scalar> 
150387
(
0.0032618106
0.0016271983
0.0014635353
0.0013558494
0.0012626029
0.0012775703
0.0015159138
0.0019600926
0.0056741187
0.0018257992
0.0017607239
0.0017738577
0.001786829
0.0017829208
0.0017271079
0.0016206741
0.0014709811
0.0012924235
0.0010798181
0.00089818294
0.0013860224
0.0018737168
0.0018705185
0.0019162402
0.0019868935
0.0020776871
0.002157133
0.0021959099
0.0021722316
0.0020763927
0.0019141421
0.0016997468
0.0014411463
0.001148786
0.00087134666
0.00067869229
0.0010305406
0.0047346467
0.0016596893
0.0016712293
0.0016593131
0.001673036
0.0017535068
0.0019090359
0.0020948001
0.0022510237
0.002330996
0.0023136648
0.0022058926
0.002019184
0.0017691429
0.0014624795
0.0011190088
0.00079260175
0.00056150415
0.00073341608
0.0042268235
0.00098894039
0.0011640952
0.001283427
0.0013601668
0.0014339129
0.0015222551
0.0016452962
0.0018004358
0.001974835
0.0021476089
0.0022713485
0.0022911516
0.0021956601
0.0019980635
0.0017125088
0.0013573327
0.00098092827
0.0006651238
0.00051501095
0.0004862602
0.00062060465
0.00078291653
0.0010085392
0.0011966553
0.0013382708
0.0014239775
0.001465569
0.0015159523
0.0016127745
0.0017510173
0.0019231285
0.0021081479
0.0022429703
0.0022694534
0.0021531379
0.0019082078
0.0015608175
0.0011586374
0.00078747335
0.00057245375
0.0004685019
0.00092727665
0.00059586029
0.00067576332
0.00084822901
0.0010330597
0.0012400898
0.0014917239
0.001718502
0.0017956166
0.0017577858
0.0017240149
0.0017427885
0.0018507347
0.0020211227
0.0021828698
0.0022854717
0.0022481995
0.0020548761
0.0017290389
0.0013126389
0.00089876455
0.00065923352
0.00053429632
0.00066950225
0.001738578
0.0022127471
0.00072526864
0.00091499211
0.0011382328
0.0013281354
0.0014654021
0.0015498603
0.0016521756
0.001913567
0.0022614162
0.002369601
0.0022458195
0.0021142589
0.0021197022
0.0022094106
0.0022948917
0.0023031736
0.0021493483
0.001857654
0.0014349314
0.00099161247
0.00074536436
0.00061785948
0.00073202517
0.00096114899
0.00079199925
0.0009794165
0.0012789106
0.0015462558
0.0017747421
0.0019601548
0.0021011911
0.0022023812
0.0022585006
0.0022881441
0.0023802839
0.0026359957
0.0027138649
0.0025481776
0.0024059286
0.0023716944
0.0023495972
0.0022166652
0.001948911
0.0015250953
0.0010630678
0.00083026047
0.00069114591
0.00078601751
0.00096892823
0.0013896595
0.0009706241
0.0013193657
0.0016683252
0.0019562063
0.002187464
0.0023536852
0.0024530429
0.002499804
0.0025269014
0.0025585473
0.0026149174
0.0027254198
0.0028641067
0.0029174647
0.0027790977
0.0025521504
0.0024223065
0.0022748159
0.0020160928
0.0015832356
0.0011199394
0.00089362568
0.00074234754
0.00083816952
0.00097609448
0.0011668712
0.0012795296
0.0012293152
0.0016618769
0.0020367281
0.0023178882
0.0025124744
0.0026205477
0.0026474988
0.0026415389
0.0026391851
0.0026882916
0.002765076
0.0027948898
0.0027461016
0.0027616039
0.0028235515
0.0027555785
0.0025178025
0.0023288223
0.0020699412
0.0015992964
0.0011647432
0.00090173378
0.00077746338
0.00089852361
0.0010098178
0.0011039378
0.0013200048
0.0014774478
0.0019846884
0.0023763146
0.0026144473
0.002720463
0.0027346569
0.0027001003
0.0026627687
0.0027099406
0.0028745146
0.0030445664
0.0025981459
0.0017921782
0.0016743128
0.0021822311
0.0026145921
0.0025687423
0.0023717759
0.0021288526
0.0015064276
0.0011661801
0.00087836318
0.00082932191
0.00097347829
0.001066514
0.0010724233
0.002622962
0.0012742446
0.0016982716
0.002273851
0.0026683241
0.0028053236
0.0027884533
0.0027239608
0.0026483424
0.0026314485
0.0028194092
0.0032058482
0.0028846919
0.0012463953
0.00042676852
0.00027862761
0.00067422527
0.0019705175
0.0024841672
0.0024168049
0.0020484182
0.0014343221
0.0011145906
0.00088374983
0.00092872907
0.0010741947
0.0011337034
0.0010614672
0.0014236859
0.0013780113
0.0018840182
0.0025059821
0.0028780291
0.00288353
0.0027618638
0.0026399173
0.0025329137
0.002613595
0.0030507438
0.0033190995
0.0022549584
0.0005318762
0.00076025746
0.00026462082
0.00025193779
0.0013778979
0.0023855405
0.0024095581
0.001800293
0.0013732601
0.0010735004
0.00095407769
0.0010819419
0.0011921629
0.001184725
0.0010515926
0.0013131911
0.0014752899
0.0020121148
0.0026788413
0.0029783792
0.0028553408
0.002674253
0.0024935043
0.0023912643
0.0027124577
0.0033688629
0.0029062554
0.002077876
0.00068812296
0.00024433669
0.00019566716
0.00025496343
0.0014840818
0.0023683664
0.0021475174
0.0016391628
0.0013128496
0.0011176764
0.0011255505
0.0012523563
0.0012918761
0.0012082833
0.0010182946
0.0013218795
0.0015804254
0.0020785465
0.0027687821
0.0029797395
0.0027811826
0.0025734681
0.0023155585
0.0023183329
0.002996042
0.0033277053
0.0026474798
0.0022962321
0.0015150027
0.00052328465
0.00045749771
0.0010308764
0.0019836352
0.0021667539
0.0018748725
0.0015577159
0.0013611985
0.0013019097
0.0013357727
0.0013864577
0.0013422769
0.001183279
0.00097567378
0.0028329422
0.0018576841
0.0020734103
0.0027683018
0.0028659292
0.0026711758
0.002433556
0.0021453623
0.0023765343
0.0033458104
0.0027408785
0.0024640041
0.0023257753
0.002290152
0.0019474587
0.0016774733
0.001906091
0.0020792615
0.0019863766
0.0017849012
0.0016313838
0.0015517699
0.0015098914
0.0014810307
0.0014441856
0.0013247966
0.0011086431
0.00091748285
0.0019039791
0.0034782658
0.0020336309
0.0026811652
0.0026854744
0.0025080947
0.0022376332
0.0020193585
0.0025419779
0.0034975281
0.0023222567
0.0023235645
0.0021747779
0.0022613562
0.0023981502
0.0023735331
0.0022034858
0.0020963768
0.0019861558
0.0018738397
0.0017772451
0.0016932845
0.0016116282
0.0015194729
0.0014103404
0.0012281816
0.00097831781
0.00079807533
0.0019842844
0.0025413242
0.0025212415
0.0023160495
0.0020348904
0.0019332473
0.002765462
0.0029908065
0.0021764425
0.0022153978
0.002031587
0.0019774842
0.0020874689
0.0022097663
0.0022589725
0.0021605573
0.0020000066
0.0018808882
0.0017805429
0.0016839232
0.0015704431
0.001432365
0.0012697936
0.0010520534
0.00081193555
0.0008769049
0.0020912102
0.0023763426
0.0024211521
0.0021549984
0.0018635816
0.0018391943
0.0028775051
0.002254876
0.0021124824
0.0021357859
0.0019517066
0.0017681137
0.0017375027
0.0018540587
0.0019208945
0.001855457
0.0017741799
0.0016913692
0.001609994
0.0015084505
0.0013811001
0.0012271198
0.0010491352
0.00084020167
0.00068785609
0.00085954447
0.0021873433
0.002368453
0.0020585273
0.0017320347
0.001711088
0.0026502705
0.0017927321
0.0020179209
0.0020616541
0.0019241335
0.0016865921
0.0015072786
0.0014857688
0.0015988002
0.0017439086
0.0017551182
0.0015890926
0.0014059881
0.0012668488
0.0011325187
0.000980529
0.00080896518
0.00064727917
0.00064394296
0.0020590304
0.002349941
0.0020200744
0.0016421709
0.0015434206
0.0021011359
0.001580168
0.0018660119
0.0019681104
0.0019085547
0.0017074887
0.0014517817
0.0012825176
0.0012427378
0.0012972492
0.0013898952
0.0014275256
0.0013287714
0.0011427984
0.00096316659
0.00079037745
0.00062468105
0.00051096127
0.0015185841
0.0023608202
0.0019918223
0.0015458252
0.0013142936
0.0015546981
0.0014053535
0.001675491
0.0018345051
0.001865154
0.0017759164
0.0015769238
0.0013402863
0.00117543
0.0011077259
0.001095817
0.0011026391
0.0010828594
0.00099809706
0.00085067635
0.00067367366
0.00057448643
0.00088512172
0.0021274854
0.0013587629
0.0010400121
0.001088889
0.0011814936
0.0014496234
0.0016561327
0.0017794406
0.0018078303
0.0017275868
0.00154572
0.0013293199
0.0011554383
0.0010510483
0.00098991479
0.00093518093
0.00086723508
0.00076954891
0.00066493206
0.00065977457
0.0015231649
0.0007660362
0.00073182711
0.00090702403
0.0011804039
0.0014245152
0.0015974542
0.0016961572
0.0017149028
0.0016559534
0.0015414291
0.0014048239
0.0012752534
0.0011714545
0.0011051321
0.0010743826
0.001110973
0.0015592733
0.0011655693
0.00058524192
0.0006669881
0.00086787999
0.0011000871
0.0012947342
0.0014343499
0.0015136758
0.0015309711
0.0014909559
0.0014119566
0.0013253435
0.0012731164
0.0012457104
0.0012260902
0.0033459418
0.0012412382
0.00074729937
0.00082409462
0.00098542093
0.0010947751
0.0011863864
0.0012420663
0.0012643761
0.0012791396
0.001317161
0.0013150198
0.002154707
0.0015520632
0.0012954005
0.0012695489
0.001312988
0.0015663747
0.0029977337
0.0073671104
0.0030536689
0.0019677417
0.0017176732
0.0015537395
0.0014469553
0.0015039969
0.0013261997
0.0020522543
0.0034749219
0.0025198267
0.0024155746
0.0023478107
0.0022733712
0.0021592319
0.001993466
0.0017845755
0.0015395733
0.0013139873
0.0012018768
0.0010195221
0.0017229621
0.0022311261
0.0060125764
0.0024632781
0.0022990392
0.0022995803
0.0023457718
0.0023813377
0.0023708898
0.002303191
0.0021831452
0.0020174998
0.0018080119
0.0015733017
0.0013121145
0.0010793006
0.00089485082
0.00090436164
0.00067117704
0.0038397746
0.0021237374
0.0017622581
0.0016241004
0.0015842334
0.0016046687
0.0016710732
0.0017717806
0.0018724298
0.0019323253
0.0019254874
0.0018455574
0.0017015989
0.0014926789
0.0012580917
0.0010131821
0.00082057101
0.00066770764
0.00069685386
0.001830222
0.0012086895
0.0010470525
0.0009719381
0.00093418915
0.00092437006
0.00093323636
0.00097252941
0.0010535429
0.001183692
0.0013767356
0.0015539409
0.0016553399
0.0016609422
0.0015683688
0.001395644
0.0011668573
0.00091847075
0.0006981843
0.00054182655
0.00056518523
0.0012473135
0.00071571792
0.00074421889
0.00079265805
0.00083256988
0.0008789705
0.00093524554
0.00099744716
0.0010339629
0.0010261363
0.0010006813
0.0010378813
0.0011505252
0.0013308478
0.0014802106
0.0015307319
0.0014606054
0.0012841445
0.0010402711
0.00078475808
0.00056045241
0.00057291701
0.00094915023
0.00088224598
0.00085664679
0.00094059201
0.0010407775
0.0011357566
0.0012268333
0.0013163824
0.0014097973
0.0015098481
0.0015548223
0.0014698523
0.0013044162
0.0011637655
0.0011652247
0.0012886842
0.0014247341
0.0014648371
0.0013627055
0.0011424472
0.00087001479
0.00060972632
0.00054737956
0.00084526055
0.001934119
0.00091364986
0.00092849734
0.0010525711
0.0012075036
0.0013442308
0.0014633094
0.0015654721
0.0016331112
0.0016582679
0.00166048
0.0016761753
0.0016881958
0.00160263
0.0014267058
0.0012642038
0.0012381823
0.0013406428
0.0014413863
0.0014142061
0.0012235314
0.00093662982
0.00065304155
0.00053895512
0.00075685151
0.0011635137
0.0010428603
0.0011369251
0.001329956
0.0014930896
0.0016122246
0.0017013151
0.0017634238
0.0017961562
0.0018044249
0.0017752177
0.001693065
0.0015856863
0.0014942098
0.0014230951
0.0013318471
0.0012695364
0.0013166382
0.0014260616
0.0014523857
0.0012856986
0.00098080785
0.00068101803
0.00053187919
0.00072637104
0.0011556026
0.0022983228
0.003553908
0.0012540154
0.0013931082
0.0016065076
0.0017411255
0.0018023686
0.001808254
0.00176973
0.0017198716
0.00168608
0.0016269666
0.001504764
0.0013517849
0.0012389691
0.0011802582
0.0011824758
0.0012158496
0.0012915165
0.0014180311
0.0014798212
0.0013234135
0.0010012708
0.00069156035
0.00052237055
0.00073257309
0.0010959215
0.0013930632
0.0015988447
0.0014042248
0.0016934182
0.0018883846
0.0019538759
0.0019188408
0.0018081156
0.001675792
0.0016185761
0.0016058438
0.0014872926
0.0012439479
0.00097558357
0.00080079096
0.00080186192
0.00089849676
0.0010502162
0.0012090008
0.0013879639
0.0014777364
0.001324136
0.0010016215
0.00068078194
0.00051303732
0.00077528597
0.001103046
0.0012693806
0.0028305599
0.0016520229
0.0019863618
0.0021355847
0.0021077563
0.0019458073
0.0017133365
0.0015815229
0.0016531916
0.0016551457
0.0013743938
0.00092028693
0.00049310961
0.00027335958
0.0002792094
0.00048455806
0.00079596019
0.0010737835
0.0013208341
0.0014458333
0.0012836423
0.00096178011
0.00063392595
0.00052440011
0.0008488582
0.0011420116
0.0011839347
0.0050603402
0.0016702699
0.0019372282
0.0022799992
0.002349883
0.0021969581
0.0018799743
0.0015788095
0.001620906
0.0018725833
0.0017205127
0.0011860227
0.00056793604
0.00031896922
0.00017211525
0.00014411556
0.00021554233
0.00054953137
0.000933949
0.0012472686
0.0013766735
0.0011744634
0.00085440245
0.00057691807
0.00057463845
0.00095476797
0.0011928629
0.0011275098
0.002329956
0.0018390066
0.0022060261
0.0025525447
0.0025167731
0.0022132378
0.0017346219
0.0014895675
0.0018580311
0.0021556019
0.0016673355
0.00099247711
0.00039578002
0.00016763099
0.00062701557
0.0003572871
0.00013572514
0.00043900562
0.0008777598
0.0011727087
0.0012087006
0.001006541
0.00072112096
0.00055497427
0.0006783654
0.0010596502
0.0011894802
0.0011948738
0.002087726
0.0017504911
0.0024721115
0.0028052395
0.0026315766
0.0021552819
0.0015453742
0.0015151651
0.0021978118
0.0023120973
0.0015305354
0.00092581616
0.00044244622
0.00019832276
0.00020873849
0.00013513969
0.00018665165
0.00051631896
0.00087088482
0.0010384651
0.0010028349
0.00081148576
0.00061462147
0.00059794487
0.00084416886
0.0011369838
0.0011533679
0.00097907487
0.0020282346
0.0019686383
0.0026463156
0.0030050343
0.0026933477
0.0020353437
0.0013677614
0.0016321884
0.0024180086
0.0022468272
0.0014780177
0.00098788548
0.00061898065
0.00035397356
0.00019915793
0.0002265735
0.00038041882
0.00063628246
0.00083124232
0.00089285928
0.00082578063
0.00069270074
0.00063220855
0.00073949883
0.0010006607
0.0011497053
0.0010669426
0.00088572444
0.002511212
0.0025658574
0.0027774039
0.0031441013
0.0027155126
0.001882188
0.0012397802
0.0017348887
0.0024547193
0.0020808399
0.0015281353
0.0011017914
0.00084042593
0.00069321679
0.00053639932
0.00049265884
0.00058298929
0.00071169608
0.00080208101
0.00081860762
0.00076859707
0.00072018153
0.00076032699
0.00092897341
0.0010875348
0.0010968249
0.00096821732
0.00087808233
0.0038758736
0.0028906346
0.0032014694
0.002718921
0.0017377352
0.0011549956
0.0016995066
0.0022394511
0.0019329272
0.0015661713
0.0011849136
0.0010270857
0.0010027101
0.00095433934
0.00088825607
0.00087357062
0.00091474606
0.00094009101
0.00092639417
0.00089372694
0.00089491185
0.00096261038
0.0010538209
0.0010707766
0.00098323518
0.00092737404
0.00087535938
0.0030210992
0.0031906572
0.0027258516
0.001644492
0.0010988079
0.0015231458
0.0019718754
0.0018127244
0.0015494018
0.0011968122
0.0011014096
0.0011830521
0.0012508542
0.0012802566
0.0012710281
0.0012529953
0.0012221317
0.0011684054
0.0011184158
0.0010946337
0.001090612
0.0010646538
0.0009803132
0.00085932433
0.00082137504
0.00086628295
0.0026789992
0.003158609
0.0027653214
0.0016252252
0.0010558604
0.0013091929
0.0017126575
0.0017126223
0.0015095701
0.001171248
0.0010356506
0.001146295
0.0013376696
0.0014558935
0.0014809229
0.0014377814
0.0013862573
0.0013220008
0.0012376189
0.0011545138
0.0010678409
0.00096149291
0.00083690913
0.00074874094
0.00083186344
0.0023611915
0.0085354451
0.0032486383
0.0029206798
0.0016847307
0.0010279267
0.001116387
0.0014834365
0.0016078557
0.0014832084
0.0011942004
0.00096239041
0.0009292168
0.0010748306
0.0012740301
0.0013973262
0.0014052558
0.0013303037
0.0012398932
0.0011442305
0.0010355218
0.00091903123
0.00080331291
0.00072129864
0.0007880363
0.0010876408
0.0035470637
0.0033833841
0.0018783629
0.0010331656
0.00097379836
0.0012787743
0.0014836374
0.0014667996
0.0012954278
0.0010484375
0.00086196468
0.000799485
0.00086135659
0.00097318993
0.0010412484
0.0010308622
0.00096698604
0.00088951975
0.00080272122
0.00071754537
0.00064328966
0.00062165596
0.00053616562
0.0045173716
0.0023621673
0.0011055874
0.00088714154
0.0010802572
0.0013297071
0.0014226151
0.0014086793
0.00127911
0.0010728045
0.00086622522
0.00074176415
0.00070089049
0.00070049571
0.00070614583
0.00069597013
0.00066782553
0.00063715827
0.00060955099
0.000607838
0.00053960547
0.00089079736
0.0034759598
0.0012687007
0.00085075389
0.00089175127
0.0011463699
0.0013125264
0.0014335843
0.0014614549
0.0014018642
0.0012626666
0.001087081
0.00092838977
0.00082466025
0.0007781561
0.00076406172
0.00076734693
0.00080214455
0.0008983406
0.00073525506
0.0010808224
0.0016974889
0.00092122725
0.00075982698
0.00095181869
0.0011340855
0.0013276715
0.0014677133
0.001555146
0.00157212
0.0015302823
0.0014464175
0.0013437358
0.0012457938
0.0011812344
0.0011784742
0.0012885751
0.0013549386
0.0021294777
0.00094293634
0.00063208403
0.00083141629
0.001003346
0.0011127583
0.0012813076
0.0014448388
0.0015526102
0.0016042595
0.001606658
0.0015892052
0.0015846481
0.001635861
0.0015322459
0.0020811594
0.001006087
0.0015296949
0.00091775419
0.0010188751
0.0010993268
0.0012290769
0.0013546559
0.0014488685
0.0015507731
0.0016912354
0.002238766
0.0056607988
0.0042325119
0.0021447026
0.0021565615
0.0023363827
0.0032484852
0.0097605823
0.0042254681
0.0026969868
0.0022666226
0.001996519
0.0018148905
0.0017842982
0.0017603751
0.0024752267
0.0049962041
0.0034940114
0.0032656677
0.0031005589
0.0029332005
0.0027287424
0.0024759802
0.0021857908
0.0018638838
0.0015809999
0.0014414138
0.0012232554
0.0019509467
0.0024152252
0.0096512858
0.0036313149
0.0033685114
0.0033143924
0.0032659136
0.0031816091
0.0030521165
0.0028752582
0.0026634136
0.0024206128
0.0021430711
0.0018493722
0.001539749
0.0012752265
0.0010680743
0.0010800499
0.00077843631
0.0066893129
0.0034690616
0.0028684095
0.0025877857
0.0024149506
0.002305777
0.0022572811
0.0022607247
0.0022871839
0.0022935994
0.0022453484
0.0021271763
0.0019448807
0.0016985045
0.0014356832
0.001173433
0.00097428694
0.00080120479
0.00085558931
0.003848337
0.0022055399
0.0017488774
0.0015049778
0.0013359591
0.0012154317
0.0011517423
0.0011379925
0.0011894072
0.0013198061
0.0015090992
0.0016915563
0.0018052193
0.0018145573
0.0017135695
0.001529609
0.0012956401
0.0010512939
0.000818573
0.00067388593
0.00090873553
0.0019925526
0.0011477293
0.0010757758
0.0010326745
0.0009843858
0.00094621602
0.00092891163
0.00093564893
0.00094858336
0.00094697036
0.0009421624
0.00098328783
0.0011040537
0.0012931221
0.0014810115
0.0015680278
0.0015209062
0.0013613582
0.0011359109
0.00088637501
0.00066888143
0.00091208489
0.0017853157
0.0011439332
0.0010797917
0.0011109805
0.0011453643
0.0011757184
0.0012107609
0.0012503411
0.0012893745
0.0013246967
0.001360799
0.0013328645
0.0012126752
0.0010757331
0.0010546915
0.0011602951
0.0013331617
0.0014269091
0.0013723966
0.0011910422
0.00094147309
0.00070078768
0.00079196124
0.001369245
0.003280152
0.0010510091
0.0011363226
0.0012344663
0.0013450306
0.0014223676
0.001479276
0.0015281011
0.0015662331
0.0015855629
0.0015842418
0.0015666226
0.0015533521
0.0014977013
0.0013440302
0.0011664305
0.0010814265
0.0011657319
0.001310644
0.0013509454
0.0012234423
0.00097638226
0.0007220929
0.00073822504
0.0011779616
0.0018535115
0.0012748222
0.0013569177
0.0015210104
0.0016350814
0.0016888892
0.0017045822
0.0016951025
0.0016727338
0.0016562935
0.0016367582
0.0015828068
0.0014979352
0.0014149189
0.0013412448
0.0012323923
0.0011192251
0.001115219
0.0012371729
0.0013290309
0.0012457572
0.00099642575
0.00072422875
0.0007077411
0.0011307496
0.0017609043
0.0035102768
0.0043643594
0.0015196623
0.001623888
0.0018082717
0.0018916475
0.0018805186
0.0018009554
0.0016803153
0.0015824457
0.0015403435
0.0014823879
0.001352091
0.0011928529
0.0010897528
0.0010565899
0.001053196
0.0010503825
0.0010841097
0.0012077239
0.0013261589
0.0012632683
0.0010036661
0.00070702103
0.0006862949
0.0011468026
0.0016611668
0.0021034086
0.0020841277
0.0016781147
0.001952823
0.0021144103
0.0021168778
0.0019909304
0.0017707584
0.0015570571
0.0014893104
0.0014829024
0.0013297581
0.0010294876
0.00073957306
0.0005779343
0.00059233804
0.00070978351
0.00084597338
0.00099220431
0.0011803839
0.0013307284
0.0012688309
0.00099270555
0.00068435768
0.00067007991
0.0012020113
0.001649161
0.001841118
0.0033971224
0.0019659574
0.0022848945
0.0023888686
0.0022792896
0.0019911502
0.0016292221
0.001455783
0.0015587957
0.0015208323
0.001149043
0.00066418322
0.00033525809
0.00020400495
0.00020701673
0.00034233841
0.00058312139
0.00084831396
0.0011310879
0.0013222177
0.001253496
0.00095827573
0.00064374542
0.00068193936
0.0012841508
0.0016622478
0.0016569117
0.0065159546
0.0020819837
0.002307425
0.0026279241
0.002634773
0.0023663484
0.0018700847
0.001452407
0.0015111863
0.0017616525
0.0014818267
0.00088604984
0.00036547371
0.0002067351
0.00015242812
0.00012410904
0.00016023185
0.00037907969
0.00071619086
0.0010810783
0.001299747
0.0011984431
0.00086687761
0.00058830302
0.00075565885
0.0013845711
0.0016785049
0.0015411063
0.003048105
0.0023071128
0.0026458642
0.0029609919
0.0028397117
0.0023661753
0.0016593961
0.0013508558
0.0017197826
0.001891853
0.0013061425
0.00067771789
0.00025227556
0.00014153861
0.0006305441
0.00040170581
0.00011305583
0.00029469671
0.00067136669
0.0010599318
0.0012298834
0.0010629704
0.00073126294
0.00057931931
0.00089654529
0.0014653109
0.0016160434
0.0015448409
0.0026989546
0.0022887774
0.0029945334
0.003289277
0.0030039602
0.0022888523
0.0014606419
0.0013716495
0.0019076007
0.001821268
0.0011580659
0.000643674
0.00028381356
0.00014176532
0.00019922832
0.00010758053
0.0001411788
0.00036188851
0.00072598363
0.0010166343
0.0010760609
0.0008471869
0.00060882298
0.00064655248
0.0010752269
0.0015000036
0.0015104842
0.0012515261
0.0025638694
0.0026488438
0.0032555784
0.0035865729
0.0031366436
0.0021696901
0.0013106547
0.0014168368
0.0019101637
0.0016496028
0.0011467948
0.00073664107
0.00043301894
0.00023257522
0.00014869507
0.00017082977
0.00028067544
0.00050751543
0.00076967729
0.00091630392
0.00084747217
0.00066437015
0.00059749857
0.00079499194
0.0012233203
0.0014561013
0.0013511716
0.001109589
0.0028134609
0.0036413707
0.0034874354
0.0038480368
0.0032618532
0.0020602291
0.0012123104
0.001392601
0.0017535584
0.0015402458
0.0011783678
0.00086748889
0.00067797889
0.00049382607
0.00035288267
0.0003471789
0.00044892781
0.00060191407
0.00072967717
0.00075153462
0.00066540809
0.00059685958
0.00069116459
0.00099215274
0.0012844345
0.0013430433
0.001196634
0.0011193693
0.0055300666
0.0037154701
0.004052659
0.0034046191
0.0020122105
0.0011594844
0.0012854039
0.0015819651
0.0014698279
0.0011786232
0.00095442853
0.00091777283
0.00085574078
0.00071626578
0.00062759027
0.0006388853
0.00068674168
0.00070695988
0.00067934663
0.00064660926
0.00069775343
0.00088628404
0.0011172348
0.001231017
0.0011751523
0.0011382235
0.0011079001
0.0039821678
0.0041891012
0.0035825617
0.0020627854
0.001134114
0.0011745108
0.0014474374
0.0014171658
0.0011525928
0.00094589603
0.0010004978
0.0011115598
0.0011103277
0.0010321626
0.00095724883
0.00090770625
0.00085545266
0.00080982556
0.00081307184
0.0008995936
0.0010313564
0.0011237558
0.0011116766
0.001018901
0.0010006117
0.0010723137
0.003775288
0.0042762883
0.0038215879
0.0022137492
0.0011457338
0.0010835679
0.0013485497
0.0013928579
0.0011616138
0.00090989968
0.00090146932
0.0010657245
0.0012248004
0.0012524365
0.0011963931
0.0011228048
0.0010564949
0.001005057
0.00098763225
0.001011694
0.0010383255
0.0010247895
0.0009569851
0.00089778672
0.001009596
0.0026410065
0.011572756
0.0045021323
0.0041824886
0.0024790694
0.0012234086
0.0010297645
0.0012693513
0.0013928635
0.0012492461
0.00098227968
0.000823415
0.00084118215
0.0009917924
0.0011233366
0.0011668487
0.0011271203
0.0010688105
0.0010208322
0.00098539742
0.00096204027
0.00093572799
0.00089310772
0.00085868777
0.00097355982
0.0012961598
0.005303466
0.0049204705
0.0029092105
0.0014015881
0.0010131579
0.0011936641
0.0013913894
0.0013861304
0.0012194276
0.00097479512
0.00080595285
0.00075924171
0.00079775915
0.00085397399
0.00087932872
0.00086284995
0.00084170768
0.000822921
0.00080561735
0.0007809059
0.00075085459
0.00077767863
0.00069414577
0.0068393371
0.0037611741
0.0017095559
0.0010644575
0.0011073668
0.0013564854
0.0014788572
0.001487775
0.0013649537
0.001152178
0.00093629267
0.00080926822
0.00074531686
0.00072978354
0.00073539799
0.00074112519
0.00075160476
0.0007641949
0.00078184214
0.00086374871
0.00075368744
0.0012619775
0.0056825711
0.0022153303
0.0012161132
0.0010077095
0.0012675356
0.0014648179
0.0016251563
0.0016895994
0.0016587983
0.0015431059
0.0013844216
0.0012372258
0.0011424516
0.0011084972
0.0011098886
0.0011446139
0.0012346507
0.0014714488
0.0012287914
0.0019575821
0.0034103522
0.0015303668
0.00094151873
0.0011272629
0.0013348939
0.0015703201
0.0017661681
0.0019133917
0.0019920499
0.002013603
0.0019902901
0.0019349446
0.0018668938
0.0018187948
0.0018321537
0.0020378897
0.0022610262
0.0038035363
0.0017339283
0.00082508694
0.0010285769
0.0012297245
0.0013565763
0.0015767524
0.0018095081
0.001988189
0.002110326
0.0021789933
0.0022231196
0.0022743234
0.0024095051
0.0023282794
0.003414835
0.001212999
0.0019072616
0.0011728415
0.001282783
0.0013924516
0.0015836181
0.0017809388
0.0019512636
0.0021410277
0.002404043
0.0033203145
0.0081589657
0.0048742198
0.0026740469
0.0027705036
0.0030457534
0.0039117411
0.012028428
0.0051971338
0.0033268582
0.0027536614
0.002396406
0.0021549459
0.0020947356
0.0020653498
0.0028916633
0.0066918547
0.0044651794
0.0041060445
0.0038305371
0.0035633178
0.003263858
0.0029233825
0.0025555325
0.0021658378
0.0018325972
0.0016711016
0.0014252111
0.0022630619
0.0027865291
0.013601876
0.0050194821
0.0046647296
0.0044849672
0.0042757434
0.004020218
0.0037417265
0.0034399502
0.0031287336
0.0028071221
0.0024651273
0.0021198632
0.0017688422
0.0014748398
0.0012510183
0.001266361
0.00097631947
0.010520455
0.0053270223
0.0044098774
0.0038897156
0.0034942882
0.0031805508
0.0029568069
0.0028248128
0.0027516872
0.0026873164
0.0025872123
0.0024271868
0.0022083392
0.0019284586
0.0016391436
0.0013577238
0.0011505276
0.00095979143
0.0010872386
0.0073488444
0.003907053
0.0030261931
0.0024984509
0.0020940019
0.0017862433
0.0015782406
0.0014640948
0.0014500229
0.0015456852
0.0017165882
0.0018971343
0.002014786
0.0020237637
0.001914416
0.0017182638
0.001473666
0.0012250339
0.00096496681
0.0009442039
0.0016417984
0.00390179
0.0021843599
0.0018402245
0.0015678421
0.0013412262
0.0011775498
0.0010714205
0.0010160862
0.00099130203
0.00097879102
0.00097733961
0.0010301898
0.0011562054
0.001359017
0.0015818678
0.0016969674
0.0016643388
0.0015108536
0.0012923439
0.0010304104
0.00089041088
0.0015584692
0.0031055245
0.001688407
0.001484747
0.0013960178
0.0013435517
0.0013042209
0.0012782611
0.0012708721
0.0012704097
0.0012661716
0.0012615693
0.0012359259
0.0011554781
0.0010523872
0.0010423264
0.0011540092
0.0013595524
0.00149287
0.0014686441
0.0013102059
0.0010710014
0.000892146
0.0012876785
0.0021948713
0.0053726634
0.0012511891
0.0013499699
0.0014336655
0.001529668
0.0015700849
0.0015724402
0.001559276
0.0015407421
0.001521999
0.0015071325
0.0014804217
0.0014521414
0.0014034888
0.0012759102
0.0011244907
0.0010287612
0.0011134572
0.0012904938
0.0013772861
0.0012915882
0.0010755433
0.00088323407
0.001163144
0.001899164
0.0028700337
0.0015095514
0.0015891402
0.0017412359
0.0018263057
0.0018326993
0.0017850564
0.0017027556
0.001614071
0.0015519903
0.0015110582
0.0014599313
0.0013938855
0.0013332309
0.0012800678
0.0011836018
0.0010555659
0.0010246959
0.0011509806
0.0012867052
0.0012582562
0.0010604525
0.00085656409
0.0010862434
0.0018308235
0.0025822605
0.0049592598
0.0050415186
0.0017740724
0.0018545206
0.0020246232
0.0020789024
0.0020167805
0.001862998
0.0016629596
0.0015078535
0.0014320454
0.0013555642
0.0012208867
0.0010709407
0.00098535288
0.00098407615
0.0010026775
0.00098642533
0.00098010807
0.0010825004
0.0012310446
0.0012285584
0.0010384727
0.00081690349
0.0010284575
0.001831816
0.002405463
0.0029181538
0.0024696214
0.0019304352
0.0021961707
0.0023410657
0.0023050961
0.0021104945
0.0017951237
0.0015061725
0.001399944
0.0013622516
0.0011905894
0.00089599189
0.00062853477
0.00048560166
0.00050749183
0.00063701433
0.00077203307
0.00088338272
0.0010381287
0.0012079167
0.0012138054
0.0010061555
0.00077183387
0.00099103434
0.0018562945
0.0023346762
0.0024854081
0.0038888035
0.0022445037
0.0025528703
0.0026312826
0.0024640682
0.0020772028
0.0016053117
0.0013750638
0.0014337089
0.0013456326
0.00097398149
0.00053918253
0.00027710328
0.00018027815
0.0001837138
0.00030367181
0.00051490042
0.00074052847
0.00098900155
0.0011963172
0.0011935148
0.00096352058
0.00072132467
0.00098813553
0.001897304
0.0022870987
0.0021957852
0.0080518755
0.0024554858
0.0026261934
0.0029332462
0.0028986511
0.0025400365
0.0019129455
0.0013905389
0.0013867589
0.001540263
0.0012314216
0.00069464986
0.00028795456
0.00017890348
0.00014572966
0.00011696015
0.00014813502
0.00033157811
0.00061661326
0.00094957338
0.0011900563
0.0011539707
0.00088124429
0.00067401072
0.0010659548
0.0019419811
0.002232096
0.0019967907
0.0037170059
0.0026965626
0.0030224436
0.0033173051
0.0031325291
0.0025261084
0.0016680311
0.0012601101
0.0014946916
0.0015347003
0.0010301656
0.00051401512
0.00020798963
0.00014295162
0.00061583776
0.00034932
0.00010933091
0.00025411873
0.00057218103
0.00095710932
0.001172176
0.0010663789
0.00075971585
0.00068552302
0.0012201379
0.0019591993
0.002087535
0.0018790608
0.0032433362
0.0027532656
0.0034402182
0.003714202
0.0033409712
0.0024475499
0.0014512349
0.0012319529
0.0015388387
0.0013883162
0.00091249305
0.00050934052
0.00023894123
0.00013479401
0.00019127551
9.9134261e-05
0.00012974526
0.00030775398
0.00064276347
0.00097446151
0.0010797238
0.00088125301
0.00065331761
0.00079094496
0.001401313
0.0019250199
0.0018976634
0.0015581866
0.0030443664
0.0032279025
0.0037823603
0.0041069669
0.0035457975
0.0023590904
0.0013225324
0.0012245922
0.0014517461
0.0012528288
0.00091059313
0.00060488892
0.00036752562
0.00019951103
0.00014331445
0.00016355714
0.00025596984
0.0004643362
0.00073875347
0.00092277815