/*--------------------------------*- C++ -*----------------------------------*\
| =========                 |                                                 |
| \\      /  F ield         | OpenFOAM: The Open Source CFD Toolbox           |
|  \\    /   O peration     | Version:  2406                                  |
|   \\  /    A nd           | Website:  www.openfoam.com                      |
|    \\/     M anipulation  |                                                 |
\*---------------------------------------------------------------------------*/
FoamFile
{
    version     2.0;
    format      ascii;
    arch        "LSB;label=32;scalar=64";
    class       volScalarField;
    location    "600";
    object      k;
}
// * * * * * * * * * * * * * * * * * * * * * * * * * * * * * * * * * * * * * //

dimensions      [0 2 -2 0 0 0 0];

internalField   nonuniform List<scalar> 
150387
(
0.00062522669
0.00056060523
0.00056626909
0.00055586184
0.00052486205
0.00047842767
0.00040334264
0.00036762571
0.00049103408
0.00062383849
0.00072026198
0.00080893191
0.00086554506
0.00088934888
0.00087402024
0.0008257155
0.00074835939
0.00064712725
0.00051907585
0.0003796699
0.00029533444
0.00056921553
0.00069863307
0.00080576056
0.00090270375
0.00099063981
0.0010608586
0.0011018983
0.0011046682
0.0010675981
0.00099633426
0.00089839518
0.00077728605
0.00062233566
0.00044070258
0.00028447882
0.00021591079
0.00041399963
0.00057561414
0.00063552278
0.00066441931
0.00070617151
0.00077642916
0.00088325708
0.0010035585
0.001099159
0.001149131
0.0011512597
0.0011110819
0.0010384096
0.00094019718
0.00081083195
0.00064149474
0.00044774158
0.00027598609
0.00019903572
0.00033698283
0.0003640767
0.00048062442
0.00055580034
0.00060372034
0.00064345453
0.00068634957
0.00074611038
0.00082431977
0.00091416146
0.0010046656
0.0010741517
0.0010983059
0.0010726298
0.0010071931
0.00090967381
0.00077027891
0.0005878894
0.00039919853
0.00025173569
0.00018184072
0.00027059994
0.00042444359
0.00054409321
0.00059459253
0.00062504139
0.00064363398
0.00065545539
0.00066975156
0.00071050434
0.0007709288
0.00084247863
0.00092370488
0.00099574846
0.0010287825
0.001008209
0.00094237279
0.00083352059
0.00067276768
0.00049253906
0.00034649526
0.00022240926
0.00023917835
0.00022341286
0.00036103335
0.00049542455
0.00058077314
0.00063160079
0.00067059638
0.00070582389
0.00071071705
0.00068362214
0.00066190615
0.00066271285
0.00071243792
0.00078395296
0.00085792129
0.00092633793
0.00095037988
0.00092823748
0.00084883126
0.00070884056
0.0005418605
0.00042048092
0.000299774
0.00028315828
0.00032270288
0.00026270484
0.00035253257
0.00052494101
0.00064039071
0.00068731036
0.0006848903
0.00064268082
0.00059501918
0.00059016092
0.00060939525
0.00066049352
0.00066441561
0.00063845348
0.00066206202
0.00073339265
0.00080478434
0.00086753585
0.00087284968
0.00083230601
0.00070992788
0.00055377738
0.00046881971
0.00036477887
0.00035392768
0.00038645913
0.0003157193
0.00053019086
0.00072035518
0.00083027219
0.00087644173
0.00087892409
0.0008531204
0.0008101494
0.00074571611
0.00066734794
0.00059855638
0.00055724062
0.00058189582
0.00060816488
0.00062852265
0.0006916944
0.00076635954
0.00081136956
0.00079204251
0.00068783606
0.00054119105
0.00050423763
0.00040339533
0.00040309718
0.00043671488
0.00041096868
0.00045089887
0.00071634965
0.00090140726
0.00099476629
0.0010210391
0.0010010614
0.00094481291
0.00087203241
0.00079386193
0.0007107593
0.00064273839
0.00058757528
0.0005502948
0.00053707488
0.00056045959
0.00059745792
0.00066850841
0.00073445411
0.00074425044
0.00064339771
0.00052290017
0.00051975103
0.00041330403
0.00043955552
0.00047267359
0.00043778378
0.00034469819
0.00060994694
0.00088404115
0.0010559583
0.0011277289
0.0011285638
0.0010763441
0.00098012671
0.00087556772
0.00076651368
0.00067556631
0.00059588422
0.00054739423
0.00051630116
0.00050081861
0.00051078942
0.00054239757
0.00058559833
0.00065944394
0.00068843369
0.00058402702
0.00051004971
0.00049437207
0.00041241741
0.0004774341
0.00051365459
0.00047452926
0.00045056239
0.00074675356
0.0010295498
0.0011893803
0.00123697
0.0012008328
0.0010978216
0.0009740487
0.00084258887
0.00073130407
0.00063458703
0.00057902564
0.00051305634
0.0003951025
0.00037469836
0.0004472934
0.00050066499
0.00053262465
0.00059073796
0.00063232838
0.0005116004
0.00049043753
0.00044906446
0.00042558392
0.00052042287
0.00056420708
0.00050811532
0.00047239265
0.00052692282
0.00086472855
0.0011555151
0.0013025675
0.0013122698
0.0012234346
0.0010896117
0.00094445424
0.00080877857
0.00071155143
0.00062323549
0.00053770202
0.0002993782
0.00013906177
0.00011732195
0.00019577475
0.00042840929
0.00049435144
0.0005436199
0.0005710158
0.00044664334
0.00044666821
0.00043421587
0.00047413882
0.00058096402
0.00062043224
0.00053586617
0.00042093021
0.00057477529
0.00095307627
0.001251988
0.0013850453
0.00133691
0.001209258
0.0010624087
0.00090838963
0.0007851646
0.00072849412
0.00060684823
0.00045886217
0.00016186002
0.00015753818
0.00012306012
0.00012485504
0.00034061631
0.00046975242
0.00051704242
0.00046092072
0.00041957125
0.00043139199
0.00045206934
0.00056584066
0.00065854215
0.00066450807
0.00054859448
0.00038845649
0.00060713103
0.0010050119
0.0013196854
0.0014242049
0.0013156779
0.0011781747
0.0010176916
0.00086752978
0.0008068311
0.00073594001
0.00055721674
0.00043829312
0.00019807252
0.00011511423
0.00013831618
0.00012067264
0.00035829223
0.00044923642
0.00045371145
0.00040695438
0.00041765751
0.00044840086
0.00054488554
0.00066554664
0.00072710958
0.00068892939
0.00053476889
0.00037945434
0.00059525285
0.0010206289
0.001348362
0.001414628
0.0012750545
0.0011358754
0.00095866537
0.00085539886
0.00088548094
0.00068084093
0.00053871405
0.00045843855
0.00035866977
0.0001724171
0.00016070012
0.00027916281
0.00040941066
0.00041172162
0.00040670432
0.00041366427
0.00045664389
0.00055710442
0.00067129093
0.00075063468
0.00076678898
0.00067866095
0.00050149077
0.0003540415
0.00048253888
0.00098636987
0.0013304966
0.0013414134
0.0012149012
0.0010703991
0.00089750432
0.00089283101
0.00095459232
0.00064063969
0.0005575439
0.00046074818
0.00044889767
0.00041698101
0.00038372543
0.00040509289
0.00041038283
0.00041289147
0.000433774
0.00049249278
0.00059380564
0.00069246285
0.00076717024
0.00080015328
0.00076746939
0.00063668119
0.00044078501
0.00036212243
0.00057256108
0.00090628758
0.0012635022
0.0012219987
0.0011255866
0.0009779562
0.00084973079
0.00096188287
0.00092626248
0.00066205406
0.00061199066
0.00048610929
0.00045159276
0.00046138953
0.00047117916
0.00045517198
0.00046598055
0.00050232731
0.0005661809
0.00064241703
0.00071740399
0.00078100651
0.00081679082
0.00080605321
0.00072740711
0.00056245868
0.00035979619
0.00076248145
0.0011496532
0.0010964076
0.0010152705
0.00088210521
0.00082646883
0.0010524408
0.00079127282
0.0007207712
0.000685171
0.00055584749
0.00048616725
0.00048105311
0.00051283015
0.00056739745
0.00059634524
0.00063338248
0.00068299183
0.00073368821
0.00078246192
0.00081446044
0.00081220192
0.00075849795
0.00063828513
0.00044724129
0.00028230116
0.00061259298
0.0009909598
0.00099216353
0.00090838271
0.00080162837
0.00079917337
0.0010745147
0.00071307283
0.00080608951
0.00077048543
0.00065591712
0.00054945734
0.00051916783
0.000552251
0.00058429686
0.00060682702
0.00065014023
0.00070176376
0.00075019528
0.0007769727
0.00077881652
0.00074269473
0.00065541186
0.00050728271
0.00031718932
0.00023978785
0.0007745763
0.00090463901
0.00082517336
0.00073785726
0.00074826269
0.0010035538
0.00069572666
0.00086446956
0.00084875227
0.00076304842
0.00064476024
0.00056336991
0.00055685307
0.00062525811
0.00069787662
0.00072218156
0.00069716456
0.00069567637
0.00070400858
0.00068719701
0.00062595132
0.00051430224
0.00035738561
0.000234085
0.00048763017
0.00081468311
0.0007569257
0.00068922457
0.00069056067
0.00088067546
0.00073196161
0.00089054037
0.00091188761
0.00086773483
0.0007617901
0.00063951822
0.00057204902
0.0005743507
0.00062510061
0.00070033136
0.00075310092
0.00074093134
0.00068231418
0.00060592128
0.00050317316
0.00037128636
0.00023002279
0.0002355453
0.00063421284
0.00067346809
0.00063733767
0.00060983757
0.00075415736
0.00074290625
0.00088303877
0.00094033205
0.00094113857
0.00088358403
0.00076848442
0.00064237604
0.00056726535
0.00055400464
0.00056775743
0.00059928425
0.00061932028
0.00059730993
0.00052722466
0.0003920784
0.00023915302
0.00018939714
0.00052547508
0.00054118428
0.00049193971
0.00060856406
0.00068445072
0.00082815414
0.00091880825
0.00095902784
0.00095587395
0.00089979643
0.00079249792
0.00067109742
0.00058030708
0.00053141532
0.00050718627
0.00048449042
0.00044590762
0.0003760389
0.00027244057
0.00020490474
0.00035551267
0.00033318706
0.00041923342
0.00054782668
0.00070262206
0.00082475088
0.00090107359
0.00093964556
0.00093742282
0.00089295193
0.00081573709
0.00072503871
0.00063917238
0.00056603671
0.00050634594
0.00044818134
0.00037416395
0.00030804805
0.00020958571
0.00024121745
0.00035486143
0.00049490535
0.00063572378
0.00073833822
0.00080782948
0.00084140432
0.00083792345
0.00079505816
0.00072126685
0.00063851402
0.00056327206
0.00049130471
0.00040052411
0.00040211805
0.00020867265
0.00029317381
0.00038573747
0.00049429301
0.0005719196
0.00061843669
0.00063362896
0.00061607706
0.0005673152
0.00051175059
0.00042444123
0.00044353513
0.00033349755
0.00036244477
0.00037452664
0.00038761039
0.00044060171
0.00048599478
0.0009082683
0.00090589336
0.00090201655
0.00087698858
0.00082833902
0.00077082209
0.00070437209
0.00061273494
0.00058530908
0.00093671818
0.0011474184
0.0012827572
0.001399516
0.0014869218
0.0015192423
0.0014888929
0.0013997968
0.0012494671
0.0010670461
0.00085433124
0.00067023813
0.00046249258
0.00041426802
0.00086284668
0.00094197634
0.001063391
0.0012241632
0.0013972892
0.0015540261
0.0016700629
0.001731842
0.0017369528
0.0016865619
0.0015821161
0.0014330953
0.0012348339
0.0010053977
0.0007583144
0.00049787459
0.00034077857
0.00074982172
0.00070327447
0.00075232091
0.00083253765
0.0009253418
0.0010260051
0.0011561652
0.0013152814
0.0014743962
0.0015993442
0.0016649044
0.0016615385
0.0015925734
0.0014625891
0.0012740856
0.0010389312
0.00075290595
0.00049772988
0.00028846564
0.00045349625
0.00052637641
0.00059581174
0.00065628276
0.00070052715
0.00073423945
0.00076391507
0.00080943601
0.00089247024
0.0010147317
0.0011925838
0.0013808935
0.0015144561
0.0015663591
0.0015340986
0.0014215794
0.0012367736
0.00097892396
0.00069445745
0.000428248
0.00025145175
0.00030453091
0.00047606631
0.00063463642
0.00075980473
0.00084156246
0.00089295039
0.00092473668
0.00094550937
0.00094551683
0.00091917744
0.00088995922
0.00092509186
0.0010548121
0.001235657
0.0013945754
0.0014766075
0.0014599124
0.0013432161
0.001133685
0.00085912631
0.00057551564
0.00036884952
0.00032881446
0.00047551274
0.00071862493
0.00092596777
0.0010683047
0.0011496837
0.0011845494
0.0011881043
0.0011782966
0.0011720215
0.0011608922
0.0011020084
0.00101248
0.00097064781
0.0010345164
0.0011838831
0.0013377804
0.001417285
0.0013793969
0.0012207186
0.00097043459
0.00068969498
0.00044260163
0.00044123354
0.00047990671
0.00038568348
0.00074517523
0.0010256501
0.001230487
0.0013530072
0.001412575
0.0014195724
0.0013754706
0.0012883483
0.001177927
0.0010764073
0.0010160011
0.00097941326
0.00094218267
0.00094057718
0.0010259674
0.00118349
0.0013275103
0.0013656506
0.0012576302
0.0010303815
0.00076042437
0.00049577449
0.00046224395
0.00045737011
0.00067453767
0.0010253542
0.0013151383
0.0014931213
0.0015784581
0.0015984768
0.0015672055
0.0014944255
0.0013886995
0.0012462952
0.0010696423
0.00089888369
0.00078260561
0.00075104072
0.00078314887
0.0008740287
0.0010350328
0.001220673
0.0013217376
0.001256477
0.0010479788
0.00079425314
0.00052329817
0.00048596679
0.00057654185
0.00064732517
0.00057998168
0.00088299031
0.0012925553
0.0015637627
0.0016931629
0.0017177358
0.0016659112
0.0015556015
0.0014152951
0.0012590974
0.0010763462
0.00088198456
0.00071919925
0.00061538497
0.00055875143
0.00057838624
0.0006852303
0.00087028454
0.0010996661
0.0012575164
0.0012202013
0.0010319182
0.00079916331
0.00052761645
0.00052101919
0.000621099
0.00066709226
0.00059226429
0.001127571
0.0015419879
0.0017686809
0.0018359034
0.0017824019
0.0016390661
0.0014539506
0.0012824927
0.0010967267
0.00085936232
0.00062735132
0.00045778121
0.00037234958
0.00036945663
0.00040505878
0.00050816467
0.00070106082
0.00096728087
0.0011738953
0.0011516978
0.00099582039
0.00077903761
0.00051356762
0.00057632936
0.00069392968
0.00067652676
0.00065923916
0.0013452948
0.0017478077
0.0019268596
0.0019199277
0.001769165
0.0015335812
0.0013321453
0.0011965469
0.000978411
0.00067082303
0.00040399198
0.00022586263
0.00014621396
0.00015466311
0.00023500218
0.00036418435
0.00056128244
0.00083996555
0.0010707741
0.0010612046
0.00094217569
0.00071732272
0.00050341382
0.00065229197
0.0007856133
0.00070885334
0.00069405741
0.00078279541
0.0015305946
0.0019196798
0.0020377465
0.0019385974
0.0016778139
0.0013903014
0.0012784564
0.0011957446
0.00088002591
0.00050917995
0.00025084023
0.00015005743
9.7891589e-05
9.2154021e-05
0.00012959315
0.0002613411
0.00046859792
0.0007413685
0.00095160972
0.00095570221
0.0008525599
0.00063403772
0.00054075915
0.00076446026
0.00088271368
0.00074375477
0.00067560605
0.0010655781
0.0016605742
0.0020476184
0.0020913833
0.0018886039
0.0015248027
0.0012744263
0.001338802
0.0012317596
0.00076898815
0.00042004287
0.00019570184
0.00011488241
0.00014740699
0.00015474251
9.7694215e-05
0.00022046162
0.00043746627
0.00066980231
0.0008242991
0.00084300298
0.00072907866
0.00057995381
0.00064291966
0.0008973831
0.00094365899
0.00074639096
0.00065613996
0.00089380802
0.0017406224
0.0021259918
0.0020831562
0.0017771996
0.0013430256
0.0012401017
0.0014596377
0.0012318446
0.00071212222
0.00042243922
0.00021267618
0.00012144913
0.00012529843
0.000108648
0.00012150892
0.00026029423
0.00044294033
0.00060188465
0.0007158346
0.00072088158
0.00062840872
0.00061031417
0.00078886479
0.0010108313
0.00096337126
0.00071163542
0.00063586343
0.00095027697
0.0017367391
0.0021419809
0.0020145038
0.0016207719
0.0011720483
0.0012871059
0.0015508258
0.0011950279
0.0007760646
0.00049070398
0.00029088941
0.00018473306
0.00013054792
0.00014439038
0.00020609942
0.00032311191
0.00044579452
0.00055449545
0.00063539072
0.00063869652
0.00062921872
0.0007402075
0.00095707748
0.0010681984
0.00092271607
0.00065965836
0.00061208417
0.0009528348
0.0016643148
0.0020839711
0.001895928
0.0014447654
0.00104351
0.0013500458
0.0015711606
0.0012081831
0.00090940232
0.00061617315
0.00042360183
0.00032464533
0.00025612489
0.00024732417
0.00029530691
0.00037737135
0.00047351227
0.00056918847
0.00063975497
0.00068136493
0.00076681044
0.00093271302
0.0010757042
0.0010586988
0.00083558725
0.00056968043
0.00093841094
0.0015445514
0.0019463276
0.0017441801
0.0012754928
0.00096505456
0.001352614
0.0015091153
0.001267097
0.0010555025
0.00077001115
0.00060292694
0.00052846952
0.00047520497
0.00044809714
0.00047120731
0.00053863377
0.00062694769
0.00071201033
0.00078384276
0.00086216744
0.00097483167
0.0010834787
0.0011036883
0.00097247708
0.00069951795
0.00049491748
0.0013710001
0.0017406042
0.0015720168
0.0011327262
0.00091208524
0.0012810111
0.0014487119
0.0013421161
0.0011780353
0.00090497647
0.00078244264
0.00076690135
0.00075887366
0.000757809
0.00079009294
0.00085030241
0.00091553686
0.00097286056
0.0010245916
0.0010784885
0.0011264301
0.0011280708
0.0010357865
0.00083439586
0.00057084629
0.00042445285
0.001045173
0.0014938225
0.0013838011
0.0010235826
0.0008507659
0.0011823408
0.0014027511
0.0013983516
0.0012716016
0.0010005599
0.00087671589
0.00092040035
0.001002633
0.0010447868
0.0010692259
0.0011044388
0.0011484345
0.0011794268
0.0011919636
0.0011833881
0.0011418797
0.0010508685
0.00088576732
0.000652998
0.00046974703
0.00041873178
0.0010045577
0.0012396978
0.0011999703
0.00092387828
0.00077996828
0.0010647486
0.0013371319
0.0014172745
0.0013445656
0.0011012693
0.00090190745
0.00086428345
0.00097754308
0.0011046315
0.001180453
0.0012042665
0.001195364
0.0011826448
0.0011623758
0.00111037
0.0010122283
0.00086517608
0.00066452672
0.0004413994
0.00033726192
0.0010270586
0.0010527173
0.00083111143
0.00070421259
0.000935839
0.0012419275
0.0013974378
0.0013944675
0.0012419128
0.0010197019
0.00083968952
0.00079521183
0.0008726626
0.00098508233
0.0010579238
0.0010684066
0.001040968
0.00098921409
0.00090627604
0.00079280096
0.00063873276
0.00046028158
0.00035441257
0.000954126
0.00077011809
0.00061924715
0.00078906635
0.0010932695
0.001301738
0.001394087
0.0013627486
0.0012250069
0.0010228449
0.0008365085
0.00072838319
0.00071537902
0.00074426924
0.00076869046
0.00076130692
0.00072383667
0.00065544951
0.0005547426
0.00042850758
0.00033126538
0.00027688826
0.00078522105
0.00053475582
0.00061638667
0.00088357138
0.0011247453
0.0012954412
0.0013802165
0.0013711564
0.0012755559
0.0011103481
0.00092632675
0.00078452668
0.00068491947
0.00062702244
0.0005883252
0.00054501129
0.00049362432
0.00044099872
0.00035137038
0.00032338145
0.00045154809
0.00042625138
0.00062746619
0.00086240752
0.001070459
0.0012395265
0.0013329259
0.0013598248
0.0013180978
0.0012200242
0.0010864306
0.00094318328
0.00081410374
0.00070650545
0.00062993
0.0005856997
0.00044242613
0.0004865284
0.00029821638
0.0003519901
0.00055981186
0.00072800987
0.00092159526
0.0010738492
0.0011756677
0.0012071221
0.0011777795
0.0010982381
0.00099060376
0.00088232339
0.00078980552
0.0006306455
0.00060961315
0.00037393565
0.00042652782
0.0005328407
0.00066058764
0.00079236743
0.00087144447
0.00090676954
0.00089331389
0.00084634497
0.00080974553
0.00079373735
0.00074238673
0.00061585554
0.00063853847
0.00067016433
0.00070010793
0.00072541061
0.0011110145
0.0010880538
0.0010881109
0.0010810341
0.0010158028
0.00093555484
0.00084233293
0.0006974707
0.00066286183
0.0012372251
0.0015581368
0.0017384022
0.0018682793
0.0019511012
0.0019582374
0.0018889143
0.0017532582
0.0015433879
0.0013016233
0.0010352368
0.0008038128
0.00053274372
0.00046271161
0.0011630653
0.0013436705
0.0015799522
0.0018079281
0.0019947612
0.0021288048
0.0022045116
0.0022193491
0.0021793731
0.0020865149
0.0019381947
0.0017444535
0.0014976832
0.001223082
0.00091707814
0.00058665845
0.00036888529
0.0010762962
0.0010691063
0.0011958034
0.0013310288
0.0014457828
0.0015454222
0.0016462759
0.0017629945
0.0018842425
0.0019813746
0.0020262712
0.0020031741
0.0019108348
0.0017510204
0.0015279697
0.0012494286
0.00090650844
0.00058891568
0.0003267661
0.00073836872
0.00076503553
0.00085120012
0.00092953744
0.00097661021
0.001000951
0.0010187433
0.0010442422
0.001108981
0.0012383038
0.0014217091
0.00161632
0.0017654678
0.0018294471
0.0017972057
0.0016714504
0.0014629892
0.0011679462
0.00082940698
0.00050961887
0.00033513282
0.00040443874
0.0006028769
0.00077515617
0.00091515569
0.0010019159
0.0010465682
0.0010632295
0.0010623767
0.0010527014
0.0010236742
0.00098676123
0.0010148976
0.0011450397
0.0013456986
0.001548293
0.0016706722
0.0016744229
0.0015581681
0.0013302737
0.0010193763
0.00068391965
0.00047834483
0.00049351745
0.00056288174
0.00085630906
0.0011005511
0.0012599052
0.0013468051
0.0013851765
0.0013899647
0.0013698408
0.0013342608
0.0012999239
0.0012363205
0.0011309511
0.0010533147
0.0010859093
0.0012414264
0.0014432641
0.0015735786
0.001565433
0.0014095052
0.0011369784
0.00081353854
0.00055438216
0.00061382727
0.00068362441
0.00043866056
0.00089893098
0.0012355451
0.0014663783
0.0015925518
0.0016481755
0.00165697
0.0016276209
0.0015642399
0.0014705454
0.0013551364
0.0012512188
0.0011661361
0.0010788898
0.0010207164
0.0010628117
0.0012302745
0.0014260384
0.0015174401
0.0014339007
0.0011960835
0.00088826251
0.00061839144
0.00064208912
0.00065308087
0.00080359848
0.0012389273
0.0015737547
0.0017643368
0.0018411195
0.0018418826
0.001788512
0.0016987024
0.0015878163
0.0014548858
0.00129696
0.0011348708
0.0010032502
0.00092389444
0.0008933871
0.00092499902
0.0010637002
0.0012826485
0.0014454416
0.0014251764
0.0012144019
0.00091820133
0.0006573815
0.00069980485
0.0008336254
0.0008767787
0.00065125505
0.0010617491
0.0015559985
0.0018641699
0.0019933714
0.0019938814
0.0019006945
0.0017456086
0.001575854
0.0014072013
0.0012129135
0.0010008449
0.00082027437
0.00071083413
0.00066285612
0.00066709624
0.00073597209
0.00089776586
0.0011491639
0.0013675858
0.0013952923
0.0012027375
0.00091422773
0.00067344982
0.00077806061
0.00092054375
0.00089144708
0.00068050679
0.001362162
0.0018526083
0.0021013806
0.0021513381
0.0020497358
0.0018341664
0.0015913186
0.0013996324
0.0012053302
0.0009369756
0.00065764544
0.00045226208
0.00035427455
0.00036300418
0.00042570262
0.00053013208
0.00072224299
0.0010182067
0.0012899881
0.0013468544
0.0011664362
0.00088603307
0.00067454781
0.00087604254
0.0010330354
0.0009083002
0.00076077247
0.0016351465
0.0020991508
0.0022857829
0.0022395694
0.0020048547
0.0016688657
0.0014276882
0.0012920123
0.0010554504
0.00069617949
0.00038274203
0.00020427987
0.00013660723
0.00014170439
0.00021972226
0.00035418353
0.00056828787
0.00090070193
0.0012136886
0.0012806183
0.0011111998
0.00082929281
0.00068252169
0.00099427788
0.0011518364
0.00096167032
0.00083919526
0.00095055074
0.0018747079
0.002311444
0.0024200856
0.0022512716
0.0018612268
0.0014725496
0.0013587079
0.0012716638
0.00091987679
0.00050040092
0.00022135071
0.00013682452
9.864783e-05
8.4542818e-05
0.00011946945
0.00024033727
0.00046579009
0.00081841822
0.0011439514
0.0011972364
0.0010172126
0.00075035522
0.00073815578
0.0011306383
0.0012555947
0.0010071293
0.00080480666
0.0013043685
0.0020484149
0.0024780976
0.0024976961
0.0021855822
0.0016526527
0.0013392971
0.0014023492
0.0012701384
0.00078986683
0.00039828135
0.00017076622
0.00011451468
0.00014838112
0.00016122181
9.3858124e-05
0.00019707048
0.0004356664
0.00078805855
0.0010705627
0.0010775408
0.00087607973
0.00069561218
0.00086495142
0.0012631825
0.0012965401
0.00095059802
0.0007706631
0.0010944949
0.0021688861
0.0025964123
0.0025193497
0.0020578564
0.0014517481
0.0013045776
0.0014667348
0.0012317526
0.00074970314
0.00040633427
0.00019004032
0.00011157269
0.00012504272
9.4959863e-05
0.00011214786
0.00024070148
0.00048058984
0.00077757991
0.00096332731
0.00090876651
0.00073468788
0.00073145403
0.0010439276
0.0013572354
0.0012805258
0.00092366397
0.00073725415
0.0011653023
0.0021892743
0.0026576546
0.0024920737
0.0018998574
0.001299147
0.0013358915
0.0014819425
0.0012007688
0.00082319331
0.00049368456
0.00028023211
0.00016539946
0.00012349326
0.00013774758
0.00019844419
0.00033833903
0.00053722187
0.00073771781
0.00081596778
0.00074045812
0.00069260242
0.00088020327
0.0012170149
0.0013816743
0.0011892726
0.00083970378
0.00070071829
0.0011311529
0.0021242793
0.0026464761
0.0024277613
0.0017494589
0.0011860665
0.0013487776
0.001459893
0.0012406793
0.00093477784
0.00063697408
0.00045013124
0.00031472083
0.00023505015
0.00024067037
0.00030727289
0.00042297532
0.00056335331
0.00067461998
0.00070436916
0.00069229513
0.00080756833
0.0010822209
0.001324382
0.0013324429
0.0010492665
0.00069200397
0.0011339777
0.001998375
0.0025503617
0.002335484
0.0016331297
0.0011340984
0.0013167263
0.001445985
0.0013037275
0.0010444608
0.00079652013
0.00068301269
0.00058321668
0.00047601207
0.00042959306
0.00046326335
0.00053801777
0.00062222006
0.00068473908
0.00072612814
0.00081476092
0.0010227353
0.0012414447
0.0013322833
0.0012034459
0.00086430735
0.00059114827
0.0017880353
0.0023585054
0.0022096576
0.0015524931
0.0010946199
0.0012719291
0.0014362596
0.0013617709
0.0011347521
0.00091150024
0.00087652509
0.00088921053
0.00084611302
0.00078960494
0.0007746435
0.00079630039
0.00082855067
0.00086679673
0.00093041467
0.0010535539
0.0012026294
0.0012893605
0.0012399936
0.0010255468
0.00069465095
0.00048603542
0.0013601924
0.0020691503
0.0020374263
0.0014801743
0.0010569217
0.0012196752
0.0014350099
0.0014230398
0.0012288177
0.0009833007
0.00093405963
0.001013996
0.0010671664
0.001078791
0.001076819
0.00107321
0.0010788303
0.0011014861
0.0011469149
0.0012090971
0.0012474943
0.0012114341
0.0010628848
0.00079962354
0.00057608361
0.00047184726
0.0013065631
0.0016903935
0.0018065609
0.0013914725
0.0010144212
0.00115788
0.0014184212
0.0014925005
0.0013601641
0.001099668
0.00093333207
0.00093491353
0.0010492403
0.0011363779
0.001164449
0.0011691247
0.0011745607
0.0011850925
0.0011944877
0.0011878386
0.0011388886
0.0010190287
0.00080732906
0.00053505766
0.00040112682
0.0013177917
0.0015467171
0.0012683918
0.00095270099
0.0010712242
0.001363929
0.0015241582
0.0015106938
0.0013355103
0.0010977906
0.00092736986
0.00089426944
0.00096539829
0.0010452629
0.0010806283
0.0010828857
0.0010777939
0.0010586264
0.0010124795
0.00092025681
0.00076409466
0.00056042765
0.00042726225
0.001306846
0.001144156
0.00086197019
0.00094066786
0.0012493926
0.0014769727
0.001589797
0.0015650221
0.0014212278
0.0012117952
0.0010162023
0.00089782671
0.00086482485
0.00087444751
0.00088352034
0.00087470684
0.00084461363
0.00078043865
0.00067299683
0.00053322243
0.00041595524
0.0003490244
0.0011091371
0.00076848226
0.0007593308
0.0010530257
0.0013269649
0.0015355003
0.0016531947
0.0016668711
0.0015878354
0.001437163
0.0012589424
0.0010998862
0.00098599553
0.00091179497
0.00084336829
0.0007680836
0.00068321896
0.00060670647
0.00048090557
0.00047306131
0.00070589983
0.0005578923
0.00077045547
0.0010506819
0.0013018244
0.0015202751
0.0016581616
0.0017258988
0.0017191514
0.0016510642
0.0015370454
0.0013917763
0.0012303075
0.0010720486
0.00093123444
0.00083376773
0.00063646355
0.00072049736
0.00044428553
0.00044277053
0.00068329564
0.00089097548
0.0011365155
0.0013451602
0.0015040475
0.0015789064
0.0015814995
0.0015159355
0.0013993756
0.0012623932
0.0011224201
0.00093213542
0.00086064081
0.00043276896
0.00050260471
0.00063993114
0.00081490998
0.0010038553
0.0011207374
0.0011872451
0.0011859448
0.001112844
0.0010656363
0.0010313729
0.00099443168
0.00069114848
0.00073705114
0.00078387614
0.00082846465
0.00087226611
0.0012753232
0.0012429331
0.0012630684
0.0012744459
0.0011956378
0.0010968445
0.00097059737
0.00077246196
0.00073266815
0.0015064905
0.0019686487
0.0021897355
0.0023258781
0.0023960729
0.0023711591
0.0022591307
0.0020768274
0.0018145358
0.0015231964
0.001204547
0.00092522806
0.00059953824
0.00050966057
0.0014613407
0.0018293679
0.0021953872
0.002466841
0.0026375892
0.0027201711
0.0027358633
0.0026900145
0.0025951959
0.0024540881
0.0022612384
0.0020274258
0.0017393848
0.0014216539
0.0010614817
0.00066717479
0.00042795183
0.0014558629
0.0016127815
0.0018477628
0.0020227689
0.0021177415
0.0021633821
0.002198454
0.0022499047
0.0023141181
0.0023659195
0.0023756452
0.00232336
0.002204556
0.0020180137
0.0017647829
0.0014463081
0.0010453672
0.00067644685
0.00039436567
0.0011398963
0.0011764829
0.0013090092
0.0014019906
0.0014274798
0.0014108045
0.0013839561
0.0013713125
0.0014022158
0.0015076525
0.0016785635
0.0018699072
0.0020208652
0.0020852334
0.0020481303
0.0019106429
0.0016821054
0.0013480756
0.00095614162
0.00060695733
0.00047981905
0.00062945386
0.0008212991
0.00099549841
0.0011404632
0.0012224872
0.0012517892
0.0012475767
0.0012252152
0.0011935397
0.0011555819
0.0011147916
0.0011401648
0.0012733129
0.0014820378
0.0017130503
0.0018623632
0.001881404
0.0017670617
0.0015238084
0.0011755473
0.00079975266
0.000644416
0.000714409
0.00065963835
0.000976942
0.0012609302
0.0014454503
0.0015304622
0.0015532618
0.0015423374
0.0015109898
0.0014632177
0.0014073852
0.0013357978
0.0012281188
0.0011416664
0.0011576747
0.0013132508
0.0015485069
0.0017193258
0.0017383629
0.0015895984
0.0013029256
0.00094795395
0.00073434054
0.00087529955
0.00095133665
0.00049299982
0.0010275274
0.0014220464
0.0016846875
0.0018084503
0.0018410824
0.0018215053
0.0017704126
0.0016991777
0.0016119789
0.0015086319
0.0014049937
0.0013068207
0.0011929377
0.0011005225
0.0011049796
0.0012715742
0.0015051365
0.0016408424
0.0015846789
0.0013526205
0.0010321538
0.00082205978
0.00095105205
0.00093021928
0.0009206338
0.0014300278
0.0018070481
0.0020065947
0.0020653544
0.0020306268
0.0019338706
0.0018051184
0.0016697095
0.0015310214
0.0013863364
0.0012497821
0.0011449441
0.0010681922
0.001005199
0.0009799224
0.0010798739
0.001311773
0.0015220613
0.0015440308
0.0013532472
0.0010614118
0.00088206733
0.0010689808
0.0011801619
0.001105323
0.00071372032
0.0012239537
0.0017865752
0.0021253578
0.0022506411
0.002219654
0.0020729621
0.0018579742
0.0016428263
0.0014504831
0.0012485915
0.0010368535
0.00086173058
0.00076617449
0.0007486273
0.00076656435
0.00080359009
0.0009150553
0.0011540455
0.0014127383
0.0014913284
0.0013262407
0.0010501201
0.0009138183
0.0011971236
0.0013160391
0.0011305089
0.00075728426
0.0015744556
0.002119661
0.0023838575
0.0024153153
0.0022619269
0.0019666435
0.0016561132
0.001427739
0.0012190853
0.00094731823
0.00066280411
0.00045282021
0.00035251341
0.00037098018
0.00046338094
0.00057770159
0.00074146168
0.001018279
0.0013221982
0.0014351186
0.0012801456
0.0010126652
0.00093029136
0.0013242157
0.0014568805
0.0011661862
0.00085586333
0.0018915733
0.0023975196
0.0025872336
0.0025043498
0.0021885958
0.0017493793
0.0014553493
0.0012977974
0.0010513143
0.00069058736
0.00037321058
0.00020301954
0.00013949501
0.00014282275
0.00022885364
0.00037612357
0.0005817817
0.00090630409
0.0012515088
0.0013754162
0.0012189965
0.00095580831
0.00095205384
0.0014537471
0.0015837549
0.0012447461
0.00096640978
0.0011051565
0.0021750763
0.0026444797
0.0027424873
0.0025110819
0.0020076168
0.0015150424
0.0013678267
0.0012586863
0.00090319547
0.0004847025
0.00021431545
0.00014255393
0.00010064523
8.4855657e-05
0.00012243465
0.00024997697
0.0004732504
0.00083670373
0.0012052235
0.0013103771
0.001126617
0.00088699708
0.0010294007
0.0015792197
0.001670998
0.0012949105
0.00091807436
0.0015221087
0.0023896074
0.0028486601
0.0028454238
0.0024389429
0.0017684066
0.0013776812
0.0013830209
0.0012247177
0.00077654268
0.00038237701
0.00016953508
0.00012606928
0.00014617175
0.00014486368
9.8949386e-05
0.00020084612
0.0004388687
0.0008370328
0.0011759415