/*--------------------------------*- C++ -*----------------------------------*\
| =========                 |                                                 |
| \\      /  F ield         | OpenFOAM: The Open Source CFD Toolbox           |
|  \\    /   O peration     | Version:  2406                                  |
|   \\  /    A nd           | Website:  www.openfoam.com                      |
|    \\/     M anipulation  |                                                 |
\*---------------------------------------------------------------------------*/
FoamFile
{
    version     2.0;
    format      ascii;
    arch        "LSB;label=32;scalar=64";
    class       volScalarField;
    location    "600";
    object      nut;
}
// * * * * * * * * * * * * * * * * * * * * * * * * * * * * * * * * * * * * * //

dimensions      [0 2 -1 0 0 0 0];

internalField   nonuniform List<scalar> 
150387
(
1.078596e-05
1.7382664e-05
1.9719007e-05
2.0509958e-05
1.963659e-05
1.6124649e-05
9.6586466e-06
6.2055128e-06
3.8244358e-06
1.9183765e-05
2.6517479e-05
3.3200733e-05
3.7734524e-05
3.9925905e-05
3.9807601e-05
3.7862361e-05
3.4265403e-05
2.9161982e-05
2.2457094e-05
1.4444085e-05
5.6637026e-06
1.5562954e-05
2.3484363e-05
3.049331e-05
3.6911221e-05
4.2510275e-05
4.6954868e-05
4.9763514e-05
5.0559187e-05
4.9402463e-05
4.667437e-05
4.2735925e-05
3.7730815e-05
3.0342598e-05
2.0060545e-05
1.0731724e-05
4.0712343e-06
3.2580282e-06
1.7967126e-05
2.1750474e-05
2.3944109e-05
2.6826105e-05
3.0941312e-05
3.6779234e-05
4.3269841e-05
4.8304043e-05
5.098472e-05
5.1557124e-05
5.0367483e-05
4.8062244e-05
4.496944e-05
4.0458932e-05
3.3097503e-05
2.2763673e-05
1.2208545e-05
4.861319e-06
2.4179312e-06
1.2063079e-05
1.785935e-05
2.1662518e-05
2.4116927e-05
2.598696e-05
2.7851321e-05
3.0451211e-05
3.3966931e-05
3.8085311e-05
4.2299032e-05
4.571829e-05
4.7384389e-05
4.7160359e-05
4.5693947e-05
4.3489166e-05
3.9341617e-05
3.171002e-05
2.1563432e-05
1.1074283e-05
6.1200654e-06
1.0618982e-05
2.0709375e-05
2.6417781e-05
2.6589632e-05
2.6273386e-05
2.6182873e-05
2.6382898e-05
2.6630814e-05
2.8171005e-05
3.0547848e-05
3.3216357e-05
3.6425701e-05
3.97849e-05
4.1972841e-05
4.2488544e-05
4.1885368e-05
4.0061115e-05
3.5158083e-05
2.772605e-05
1.8875423e-05
9.5024782e-06
5.5523512e-06
7.5390112e-06
1.7359713e-05
2.6042605e-05
2.93853e-05
2.8951743e-05
2.7131667e-05
2.6090667e-05
2.531759e-05
2.3928132e-05
2.2871483e-05
2.268029e-05
2.4682684e-05
2.7367167e-05
3.0346567e-05
3.3791351e-05
3.615781e-05
3.7737669e-05
3.7504249e-05
3.4450408e-05
2.940164e-05
2.4137696e-05
1.5137294e-05
1.0778268e-05
5.3908097e-06
2.807029e-06
1.542205e-05
2.7104798e-05
3.2426603e-05
3.2011493e-05
2.8808969e-05
2.3985051e-05
1.928627e-05
1.6380974e-05
1.4779514e-05
1.656931e-05
1.7690793e-05
1.7351733e-05
1.8610798e-05
2.1909839e-05
2.540033e-05
2.9409707e-05
3.1901758e-05
3.3561684e-05
3.1611117e-05
2.78337e-05
2.6539064e-05
1.9382605e-05
1.540088e-05
1.3984886e-05
1.1327133e-05
2.5830901e-05
3.6517051e-05
4.0123809e-05
3.8954116e-05
3.5469485e-05
3.1174364e-05
2.6821326e-05
2.2159979e-05
1.7517164e-05
1.35464e-05
1.0601891e-05
1.1229095e-05
1.3063378e-05
1.4777523e-05
1.8155671e-05
2.2496462e-05
2.6728822e-05
2.8969933e-05
2.792e-05
2.4796065e-05
2.7561234e-05
2.1190173e-05
1.8605006e-05
1.7715233e-05
1.0938344e-05
1.8851666e-05
3.5004787e-05
4.3833274e-05
4.5527098e-05
4.2892991e-05
3.8319121e-05
3.2751335e-05
2.7378005e-05
2.244627e-05
1.7770275e-05
1.4218475e-05
1.1400821e-05
9.5157745e-06
8.8982905e-06
1.0172491e-05
1.2587831e-05
1.6604552e-05
2.1341532e-05
2.4726929e-05
2.3531845e-05
2.1972808e-05
2.7206807e-05
2.0709734e-05
2.0746179e-05
2.0600289e-05
1.4782195e-05
8.3573801e-06
2.7237256e-05
4.2324187e-05
4.927232e-05
4.9380953e-05
4.562397e-05
3.9788053e-05
3.2656617e-05
2.6119508e-05
2.0036067e-05
1.5279252e-05
1.1557375e-05
9.6489097e-06
8.7363918e-06
8.1741394e-06
8.3163084e-06
9.6087125e-06
1.2258025e-05
1.6805905e-05
2.0606713e-05
1.9194616e-05
2.010191e-05
2.4393382e-05
1.9689584e-05
2.2831786e-05
2.351483e-05
1.8357939e-05
1.3841299e-05
3.3969172e-05
4.8066764e-05
5.3577208e-05
5.2672142e-05
4.7705094e-05
3.9664615e-05
3.1624521e-05
2.3996091e-05
1.7761462e-05
1.2608411e-05
9.9108899e-06
9.1181993e-06
7.839365e-06
7.5469156e-06
8.2513829e-06
8.6284544e-06
9.9394991e-06
1.3242153e-05
1.6903719e-05
1.5637092e-05
1.8562833e-05
2.0662638e-05
1.9655757e-05
2.5039692e-05
2.6862907e-05
2.1667103e-05
7.6569671e-06
1.9610276e-05
3.9627343e-05
5.2848386e-05
5.7227448e-05
5.5246633e-05
4.8310399e-05
3.9227008e-05
3.0313091e-05
2.2372108e-05
1.616207e-05
1.0904453e-05
9.0204128e-06
6.471829e-06
4.0781727e-06
4.4460763e-06
5.116239e-06
8.3826237e-06
8.8538732e-06
1.100504e-05
1.4325842e-05
1.2517499e-05
1.6110063e-05
1.9201031e-05
2.1785348e-05
2.8278605e-05
3.0558481e-05
2.4347177e-05
1.1200786e-05
2.1576745e-05
4.3392307e-05
5.6294358e-05
5.9989508e-05
5.5785635e-05
4.7651678e-05
3.8480029e-05
2.9320167e-05
2.1228809e-05
1.565629e-05
9.9857899e-06
8.4036601e-06
4.4331367e-06
2.9380114e-06
5.1505444e-06
5.5687964e-06
7.5780308e-06
8.3251826e-06
9.9852157e-06
1.0620667e-05
1.1537219e-05
1.560215e-05
1.9278306e-05
2.6633416e-05
3.2739652e-05
3.3544821e-05
2.5757152e-05
1.0341876e-05
2.248692e-05
4.5178541e-05
5.8510845e-05
6.1292521e-05
5.4561174e-05
4.671533e-05
3.7382194e-05
2.83259e-05
2.1599554e-05
1.4469182e-05
9.6151714e-06
8.3205532e-06
5.1312708e-06
4.8810343e-06
8.7997542e-06
5.140226e-06
7.7850151e-06
7.6690848e-06
8.6271092e-06
9.0930977e-06
1.1958264e-05
1.6190465e-05
2.3740402e-05
3.1832562e-05
3.6831667e-05
3.5352746e-05
2.5275591e-05
9.8032415e-06
2.0177692e-05
4.5104354e-05
5.9097175e-05
6.0443372e-05
5.2610268e-05
4.5121669e-05
3.5720772e-05
2.8405605e-05
2.355337e-05
1.2536865e-05
9.8656668e-06
8.2373777e-06
7.6422044e-06
5.1128749e-06
5.0802603e-06
6.803792e-06
7.604996e-06
7.041096e-06
7.940143e-06
9.8866751e-06
1.3787209e-05
2.1455313e-05
3.0362079e-05
3.6575741e-05
3.9423222e-05
3.5031688e-05
2.3198706e-05
3.982109e-06
1.128068e-05
4.2231534e-05
5.7551494e-05
5.6507013e-05
4.97304e-05
4.2373334e-05
3.3792082e-05
3.0188181e-05
2.4511904e-05
1.3476602e-05
1.135427e-05
8.2148948e-06
7.9190467e-06
8.0353874e-06
7.9000177e-06
7.7483304e-06
7.2897353e-06
7.7241866e-06
9.4875783e-06
1.3380924e-05
2.0450494e-05
2.8581812e-05
3.5765305e-05
3.9899355e-05
4.0014318e-05
3.2907492e-05
1.9058916e-05
6.1985653e-06
8.4824906e-06
3.6349834e-05
5.3588418e-05
5.0045266e-05
4.5462825e-05
3.8467364e-05
3.2180427e-05
3.275783e-05
2.2077477e-05
1.6987098e-05
1.4506992e-05
9.7790223e-06
8.1164754e-06
7.9891688e-06
8.4182021e-06
8.4622002e-06
9.321992e-06
1.1434121e-05
1.5396446e-05
2.0899182e-05
2.7355217e-05
3.4063319e-05
3.9515842e-05
4.1461593e-05
3.8773499e-05
2.9103405e-05
1.4598618e-05
2.6369212e-05
4.6807575e-05
4.2911348e-05
4.0055134e-05
3.4414563e-05
3.1798604e-05
3.6047085e-05
1.8841119e-05
2.1482765e-05
1.9071671e-05
1.3687319e-05
1.0757241e-05
9.9771973e-06
1.0711327e-05
1.2826446e-05
1.4813996e-05
1.8052742e-05
2.2320841e-05
2.7209035e-05
3.2722514e-05
3.8015464e-05
4.1449264e-05
4.0777274e-05
3.4852521e-05
2.2171993e-05
8.1792852e-06
1.6150607e-05
3.7191657e-05
3.6592069e-05
3.4461428e-05
3.1034179e-05
3.1253373e-05
3.6111967e-05
2.0294933e-05
2.7683178e-05
2.5015758e-05
1.983928e-05
1.5367396e-05
1.3961516e-05
1.4804442e-05
1.5995805e-05
1.7861644e-05
2.1441686e-05
2.6205108e-05
3.1460593e-05
3.6018281e-05
3.9526437e-05
4.0455374e-05
3.6850183e-05
2.7565069e-05
1.3163823e-05
6.020444e-06
2.4686184e-05
3.1097707e-05
2.9769825e-05
2.828985e-05
2.9449529e-05
3.4200593e-05
2.4299896e-05
3.3330189e-05
3.144768e-05
2.7234005e-05
2.2183443e-05
1.8951181e-05
1.8783326e-05
2.2007312e-05
2.5134838e-05
2.6744158e-05
2.7527318e-05
3.0979568e-05
3.5210616e-05
3.7528364e-05
3.5963602e-05
2.9427239e-05
1.7759266e-05
7.6584746e-06
1.0393478e-05
2.5419264e-05
2.5525934e-05
2.6034285e-05
2.7807497e-05
3.3221571e-05
3.0515173e-05
3.8250341e-05
3.8025566e-05
3.5506836e-05
3.0588299e-05
2.5354031e-05
2.29639e-05
2.3890064e-05
2.7109339e-05
3.1759057e-05
3.575732e-05
3.7183321e-05
3.6664155e-05
3.4306271e-05
2.8829885e-05
1.9861048e-05
9.3195787e-06
3.2881569e-06
1.5333795e-05
2.0493964e-05
2.3649463e-05
2.5467039e-05
3.2924591e-05
3.5344754e-05
4.1885138e-05
4.3379651e-05
4.2740043e-05
3.9565413e-05
3.3705591e-05
2.7709176e-05
2.4638726e-05
2.4936585e-05
2.6474643e-05
2.9313983e-05
3.1878732e-05
3.2171344e-05
2.9408277e-05
2.0537084e-05
8.9601335e-06
3.6474249e-06
1.1681004e-05
1.9399438e-05
2.0942469e-05
3.0610575e-05
3.5685807e-05
4.2580393e-05
4.5877227e-05
4.6518044e-05
4.5486875e-05
4.2178504e-05
3.6568568e-05
3.0491877e-05
2.6230798e-05
2.4181763e-05
2.3387278e-05
2.2590053e-05
2.0634572e-05
1.6537575e-05
1.0046362e-05
5.7273136e-06
7.4680249e-06
1.3042759e-05
2.161453e-05
2.9778998e-05
3.7640504e-05
4.2975506e-05
4.5744051e-05
4.6849456e-05
4.6118382e-05
4.3336173e-05
3.8852537e-05
3.3677746e-05
2.8832482e-05
2.4615365e-05
2.0879639e-05
1.6826395e-05
1.1341301e-05
5.4771823e-06
3.3917808e-06
8.9479705e-06
1.6991903e-05
2.5399615e-05
3.306377e-05
3.7894188e-05
4.0947443e-05
4.2093896e-05
4.1274725e-05
3.8157113e-05
3.3159891e-05
2.7685662e-05
2.2429047e-05
1.7439228e-05
1.1775447e-05
4.3494192e-06
3.1573188e-06
1.0351379e-05
1.624984e-05
2.2314629e-05
2.6889799e-05
2.9013949e-05
2.909161e-05
2.7016949e-05
2.2645057e-05
1.7894533e-05
1.2329497e-05
8.2169441e-06
6.4493864e-06
9.1268753e-06
9.9439404e-06
1.0298467e-05
1.115422e-05
7.0910846e-06
1.0077983e-05
2.4186594e-05
3.721375e-05
4.029859e-05
3.9744822e-05
3.6956913e-05
2.9689292e-05
2.5478794e-05
1.5023871e-05
2.27256e-05
4.7023557e-05
6.1307132e-05
7.5081888e-05
8.7528288e-05
9.6204931e-05
0.00010008306
9.8818348e-05
9.126238e-05
7.7986185e-05
5.4655657e-05
3.9655564e-05
1.1173168e-05
6.9227908e-06
1.1144207e-05
3.2419705e-05
4.4267203e-05
5.8650618e-05
7.4908197e-05
9.1272121e-05
0.00010587582
0.00011720039
0.00012437581
0.0001268918
0.00012459997
0.00011748451
0.00010458945
8.4289954e-05
5.7834964e-05
2.4668361e-05
1.55722e-05
1.31781e-05
2.0960006e-05
2.8905418e-05
3.8409389e-05
4.8643824e-05
5.9041335e-05
7.1992426e-05
8.7875929e-05
0.00010448776
0.00011913686
0.00012956283
0.00013462811
0.00013414801
0.00012897953
0.00011612546
9.5880121e-05
6.2173854e-05
3.3392088e-05
1.0747043e-05
1.0113142e-05
2.0631015e-05
3.051351e-05
3.9882823e-05
4.7277841e-05
5.2489456e-05
5.6278305e-05
6.0632407e-05
6.8042111e-05
7.8289986e-05
9.2975769e-05
0.0001104405
0.00012470065
0.00013294459
0.00013505195
0.0001303197
0.00011797913
9.3902055e-05
6.2167544e-05
3.0463017e-05
1.0068413e-05
6.6915952e-06
2.8499387e-05
4.8707047e-05
6.5548177e-05
7.6558695e-05
8.1643737e-05
8.2291131e-05
8.0664842e-05
7.7817285e-05
7.4103067e-05
7.1233937e-05
7.4210362e-05
8.7035533e-05
0.00010325474
0.00011825051
0.00012819572
0.00013132978
0.00012645045
0.00011119385
8.4648789e-05
5.3188536e-05
2.1372201e-05
1.0252018e-05
2.3066257e-05
5.4255688e-05
8.2041382e-05
9.8690394e-05
0.00010474034
0.00010293505
9.6509391e-05
8.8632925e-05
8.1880486e-05
7.8009146e-05
7.4359874e-05
7.0729279e-05
7.2861884e-05
8.266233e-05
9.7884432e-05
0.00011305202
0.00012341489
0.00012566636
0.00011739173
9.7420063e-05
7.0213674e-05
3.2209201e-05
2.0729506e-05
1.0716993e-05
1.4652941e-05
5.3824335e-05
8.9947591e-05
0.0001128517
0.00012256569
0.00012272397
0.00011585433
0.0001042628
9.0085403e-05
7.5204811e-05
6.2212319e-05
5.5031076e-05
5.3869285e-05
5.5998748e-05
6.298169e-05
7.6511204e-05
9.4028303e-05
0.00011003679
0.0001186886
0.00011634113
0.00010201655
7.9691821e-05
4.1044811e-05
2.5408223e-05
1.6181045e-05
3.9267098e-05
8.3225905e-05
0.00011704372
0.00013438378
0.0001390859
0.00013516693
0.00012535386
0.00011190435
9.6187859e-05
7.8746768e-05
6.0819941e-05
4.5859808e-05
3.6890694e-05
3.5672664e-05
4.1445442e-05
5.4156268e-05
7.3229204e-05
9.4037897e-05
0.00010825577
0.00011051275
0.00010077751
8.3368462e-05
4.6337004e-05
2.9261539e-05
2.5887831e-05
1.6408787e-05
8.5185345e-06
5.5956624e-05
0.00010793342
0.00013699396
0.00014818694
0.00014733693
0.00013812961
0.00012306433
0.00010481912
8.4621941e-05
6.4086693e-05
4.6526041e-05
3.443764e-05
2.7509064e-05
2.3806896e-05
2.5461627e-05
3.4756478e-05
5.2779479e-05
7.6750015e-05
9.6174645e-05
0.00010125348
9.5715329e-05
8.3115782e-05
4.7962352e-05
3.3350242e-05
3.1679967e-05
2.8750374e-05
1.9745464e-05
8.1488008e-05
0.00012636891
0.00014909086
0.00015525486
0.00014900981
0.00013372396
0.00011353289
9.1457474e-05
6.7411812e-05
4.4688801e-05
2.8474883e-05
1.9332764e-05
1.5582068e-05
1.5320391e-05
1.6434712e-05
2.2129557e-05
3.6587043e-05
6.0669376e-05
8.3927499e-05
9.0154421e-05
8.9104762e-05
8.0232686e-05
4.6268861e-05
3.8558672e-05
3.9289798e-05
3.2450443e-05
1.3818349e-05
9.8596472e-05
0.00013841126
0.00015646811
0.00015739533
0.00014477027
0.00012354165
0.00010098811
7.7943295e-05
5.2053379e-05
2.9467769e-05
1.596117e-05
9.3108169e-06
7.0385933e-06
7.7105607e-06
1.0257475e-05
1.4996631e-05
2.6405153e-05
4.8074768e-05
7.1370708e-05
7.8958102e-05
8.306738e-05
7.3052175e-05
4.3494065e-05
4.5111932e-05
4.8639561e-05
3.819685e-05
8.5674894e-06
3.3018124e-05
0.00010883838
0.00014546731
0.00015903641
0.00015395578
0.00013476533
0.00011018708
9.0752068e-05
6.8719221e-05
4.051124e-05
1.9673974e-05
9.9709711e-06
6.3534377e-06
5.0108789e-06
5.3034713e-06
7.0125189e-06
1.1185759e-05
2.1160215e-05
3.9659825e-05
5.9201035e-05
6.9991969e-05
7.656492e-05
6.2713142e-05
4.5798957e-05
5.5087681e-05
5.8788406e-05
4.4155184e-05
1.7631199e-05
5.5568641e-05
0.00011249894
0.00014783158
0.00015641043
0.00014504281
0.00012063268
9.8132253e-05
8.6820494e-05
6.3346969e-05
3.1919701e-05
1.5999604e-05
8.7092037e-06
7.0859048e-06
3.118892e-06
6.0317651e-06
6.3287789e-06
9.964108e-06
1.9622574e-05
3.4430684e-05
5.0593346e-05
6.3543227e-05
6.6341175e-05
5.4545191e-05
5.4839342e-05
6.8396794e-05
6.7377584e-05
4.1961713e-05
1.8559316e-05
4.1074388e-05
0.00011030205
0.00014500926
0.00014841239
0.00013188969
0.0001050455
9.1347604e-05
8.7245327e-05
5.9067457e-05
2.9820039e-05
1.7347872e-05
9.2006755e-06
6.6935845e-06
6.7691044e-06
7.8614581e-06
7.1191317e-06
1.1810098e-05
2.0275531e-05
3.1396204e-05
4.5987355e-05
5.7635419e-05
5.7825472e-05
5.6064542e-05
6.6346548e-05
8.0880826e-05
7.242058e-05
4.6552362e-05
1.7941222e-05
4.1283546e-05
0.00010258174
0.00013741188
0.0001356083
0.00011615784
9.0390585e-05
9.134837e-05
8.9518066e-05
5.7204335e-05
3.6674029e-05
2.193689e-05
1.230329e-05
8.6768273e-06
7.7016691e-06
8.2815169e-06
1.0049259e-05
1.4767212e-05
2.1517129e-05
3.0992419e-05
4.4000697e-05
5.3001231e-05
5.6361872e-05
6.6682517e-05
8.2385323e-05
8.9322286e-05
7.1818715e-05
4.4216261e-05
1.3427076e-05
3.1845291e-05
8.975826e-05
0.00012431667
0.00011913363
9.9810024e-05
7.9048033e-05
9.4551392e-05
9.0506933e-05
6.3134878e-05
4.8707163e-05
3.1013349e-05
1.9215811e-05
1.3683329e-05
1.1006718e-05
1.1174532e-05
1.3462606e-05
1.8008842e-05
2.5158616e-05
3.561877e-05
4.7925993e-05
5.8017644e-05
6.9601425e-05
8.4282091e-05
9.5760211e-05
9.1970811e-05
6.4901281e-05
3.3263648e-05
2.0448386e-05
7.4276948e-05
0.00010649397
0.00010069979
8.4258734e-05
7.2571471e-05
9.6887432e-05
9.1526272e-05
7.475612e-05
6.4020906e-05
4.5034968e-05
3.1854091e-05
2.5067269e-05
2.1296176e-05
2.0344578e-05
2.2875391e-05
2.8544939e-05
3.7630087e-05
4.9251479e-05
6.1872201e-05
7.4755903e-05
8.8848732e-05
0.0001002574
0.00010238505
8.6565303e-05
4.7488155e-05
2.5183826e-05
5.599542e-05
8.5459909e-05
8.1593331e-05
7.0219973e-05
6.813835e-05
9.6963176e-05
9.579153e-05
8.9431583e-05
8.0611144e-05
6.1587289e-05
5.0026332e-05
4.4742234e-05
4.143571e-05
4.037058e-05
4.4202184e-05
5.193258e-05
6.1727142e-05
7.29038e-05
8.4477455e-05
9.5632338e-05
0.0001047082
0.00010757387
9.8495899e-05
7.2917149e-05
3.570585e-05
1.8717233e-05
3.6698328e-05
6.3583532e-05
6.2322411e-05
5.8019608e-05
6.1695878e-05
9.6100181e-05
0.00010340302
0.00010275754
9.6403184e-05
7.6927188e-05
6.6795468e-05
6.6511948e-05
6.7635954e-05
6.7478941e-05
6.9478267e-05
7.6354199e-05
8.5627077e-05
9.4700616e-05
0.00010331932
0.00010916861
0.00010989469
0.00010336969
8.4373005e-05
5.1254811e-05
2.3873635e-05
6.6831799e-06
1.0640599e-05
4.2576777e-05
4.4371034e-05
4.5597553e-05
5.3264057e-05
9.1394898e-05
0.0001084731
0.00011243549
0.00010969942
9.1401302e-05
7.6070308e-05
7.2349885e-05
8.0015534e-05
8.6198098e-05
8.9751577e-05
9.2882166e-05
9.6670073e-05
0.00010152357
0.00010627279
0.00010715654
0.00010033886
8.3862301e-05
5.5100089e-05
2.2251525e-05
9.4122102e-06
2.67648e-05
2.9479137e-05
3.3096458e-05
4.3199643e-05
8.0942338e-05
0.00010855282
0.00011846217
0.0001193132
0.00010715476
8.9257843e-05
7.3619099e-05
7.1186535e-05
7.9570532e-05
8.9740806e-05
9.6737974e-05
9.9658666e-05
0.00010085491
9.9007365e-05
9.2087092e-05
7.8835437e-05
5.7078733e-05
3.0671823e-05
2.1084426e-05
1.8137113e-05
2.2596777e-05
3.1216014e-05
6.3165021e-05
9.9579475e-05
0.00011469215
0.00012295178
0.00011864839
0.0001055873
8.7769073e-05
7.2703012e-05
6.4371925e-05
6.5715036e-05
7.1170034e-05
7.5309731e-05
7.4949969e-05
7.0609096e-05
6.0683926e-05
4.5437612e-05
2.7187651e-05
1.8302832e-05
7.7459138e-06
1.5964364e-05
2.0285904e-05
4.0192502e-05
7.8791986e-05
9.9317585e-05
0.00011507207
0.00011959518
0.00011577935
0.00010445652
8.787638e-05
7.1040993e-05
5.9666092e-05
5.1197231e-05
4.547178e-05
4.0770776e-05
3.4838685e-05
2.7339021e-05
1.9483911e-05
1.5112447e-05
8.7079991e-06
1.0810445e-05
1.7750367e-05
4.6634622e-05
7.0325585e-05
9.0936199e-05
0.000104151
0.00010894651
0.00010701317
9.9460836e-05
8.7540269e-05
7.3443409e-05
5.9582787e-05
4.7880189e-05
3.8030975e-05
3.0304493e-05
2.3959778e-05
1.3001829e-05
1.0004279e-05
8.4883469e-06
1.7641219e-05
3.3924087e-05
4.7540782e-05
6.8694524e-05
8.0998262e-05
8.609784e-05
8.4466111e-05
7.7820837e-05
6.7563487e-05
5.5572824e-05
4.4214556e-05
3.4319144e-05
2.3360636e-05
1.6071108e-05
1.250837e-05
1.0703663e-05
2.7842672e-05
3.8546279e-05
5.1400686e-05
5.5608717e-05
5.4627e-05
4.957032e-05
4.1570867e-05
3.4892779e-05
2.5327215e-05
8.7624427e-06
8.0649565e-06
1.7109982e-05
1.874318e-05
1.8881154e-05
1.4579057e-05
1.1381677e-05
2.5215547e-05
3.9510271e-05
4.6402578e-05
4.6514448e-05
4.3404083e-05
3.5788428e-05
2.4870769e-05
1.5976202e-05
2.7574e-05
6.2535895e-05
8.328582e-05
0.00010131789
0.00011680471
0.00012647673
0.00012969399
0.00012656851
0.00011502014
9.6445358e-05
6.6916503e-05
4.7537374e-05
1.3092837e-05
7.9782137e-06
1.2614369e-05
4.4747027e-05
6.6694864e-05
8.8756653e-05
0.00010965278
0.0001281939
0.0001433066
0.00015417604
0.00016049705
0.00016186769
0.00015776139
0.00014809382
0.00013110899
0.00010557626
7.0868577e-05
2.8679352e-05
1.5732658e-05
1.5585638e-05
2.9653248e-05
4.486637e-05
6.161538e-05
7.7900524e-05
9.3222229e-05
0.00010805929
0.0001237362
0.00013970599
0.00015404873
0.00016457124
0.00016977605
0.00016896464
0.00016246442
0.00014635695
0.00011973113
7.5910059e-05
3.8958767e-05
1.1231847e-05
1.2750171e-05
2.3883106e-05
3.7286061e-05
5.1670918e-05
6.4252773e-05
7.4188665e-05
8.1099222e-05
8.6239368e-05
9.3059385e-05
0.00010456511
0.00012054416
0.0001389987
0.00015539325
0.00016600131
0.00016964316
0.00016438003
0.00014867583
0.0001167788
7.5634591e-05
3.4685433e-05
1.1123435e-05
7.3881927e-06
2.8501016e-05
5.0268874e-05
7.299095e-05
9.1778238e-05
0.0001041807
0.00010952723
0.00010856421
0.00010514229
9.9593192e-05
9.3012409e-05
9.4277113e-05
0.00010687925
0.00012603716
0.00014567679
0.00016020322
0.00016590918
0.00016050875
0.00014021042
0.00010551012
6.2936637e-05
2.2578206e-05
1.2278138e-05
2.4927353e-05
6.111722e-05
9.8119759e-05
0.00012473106
0.0001388509
0.00014262458
0.00013906618
0.00013097958
0.00012095046
0.00011175948
0.00010320926
9.4926106e-05
9.2822709e-05
0.0001006246
0.00011954077
0.00014062136
0.00015617915
0.0001607059
0.00015012352
0.00012357739
8.4998706e-05
3.4926662e-05
2.4765877e-05
1.2822823e-05
1.6477571e-05
6.4002003e-05
0.00011129622
0.00014388065
0.00016047885
0.00016527235
0.00016170361
0.00015222732
0.00013888833
0.00012285078
0.00010549798
9.0706652e-05
8.1717637e-05
7.7944886e-05
8.0388481e-05
9.4006568e-05
0.00011685516
0.00013964334
0.00015340088
0.00015125061
0.00013186988
9.8340429e-05
4.6620902e-05
3.1499379e-05
2.0710051e-05
4.5590158e-05
0.0001018077
0.00014654951
0.00017134291
0.00018063641
0.0001791218
0.0001698362
0.00015525667
0.00013699531
0.00011639003
9.5646204e-05
7.7382421e-05
6.4022041e-05
5.7276854e-05
5.8287157e-05
6.880304e-05
9.1310514e-05
0.00011968161
0.00014148438
0.00014673927
0.00013320558
0.00010477136
5.4954473e-05
3.8978935e-05
3.551801e-05
1.9709751e-05
8.7462969e-06
6.6763517e-05
0.00013418526
0.00017296164
0.00018905091
0.00019026703
0.00018053616
0.00016320951
0.00014123608
0.00011570108
8.931827e-05
6.6676099e-05
5.0766111e-05
4.1730255e-05
3.7426103e-05
3.8028596e-05
4.6410659e-05
6.6910682e-05
9.84099e-05
0.00012692762
0.00013870027
0.00012971642
0.00010639445
5.9476063e-05
4.7509524e-05
4.5911147e-05
3.4002434e-05
1.9997841e-05
9.951267e-05
0.00015817828
0.00018795881
0.00019677234
0.00018992503
0.00017098605
0.00014637005
0.00011838188
8.8174298e-05
5.9419147e-05
3.7809857e-05
2.4890968e-05
1.9545372e-05
2.0021478e-05
2.2978901e-05
2.9898816e-05
4.7316004e-05
7.9048045e-05
0.00011254455
0.00012867082
0.00012335138
0.00010324267
6.1114095e-05
5.746248e-05
5.8238451e-05
4.0329209e-05
1.5333486e-05
0.00012240009
0.0001735656
0.0001968431
0.00019804873
0.00018167882
0.00015385265
0.00012601221
9.6379927e-05
6.5922986e-05
3.7961965e-05
1.9850292e-05
1.1202486e-05
8.2328305e-06
8.7297879e-06
1.2692144e-05
1.9361557e-05
3.4262786e-05
6.4551797e-05
0.00010026609
0.00011774947
0.00011596751
9.6148863e-05
6.1479407e-05
6.9285452e-05
7.1833724e-05
5.0233747e-05
9.7272594e-06
3.905852e-05
0.00013708254
0.00018297697
0.00020006023
0.0001927612
0.00016671698
0.00013436745
0.00010994531
8.2616512e-05
5.1393052e-05
2.5434345e-05
1.206558e-05
8.1499728e-06
5.7458261e-06
5.1831351e-06
8.0169167e-06
1.3713688e-05
2.7264292e-05
5.576169e-05
9.0614731e-05
0.00010764278
0.00010742569
8.6134125e-05
6.4895231e-05
8.3094957e-05
8.4531545e-05
5.9235268e-05
1.9124747e-05
6.6370378e-05
0.00014272854
0.00018665607
0.00019771856
0.00018168952
0.00014813431
0.00011950537
0.00010291562
7.6746257e-05
4.2989233e-05
2.1065584e-05
1.0403303e-05
8.3385387e-06
3.1425654e-06
5.8234719e-06
7.0128297e-06
1.1860701e-05
2.5444321e-05
5.273289e-05
8.3869253e-05
9.8307987e-05
9.4461799e-05
7.5172477e-05
7.510238e-05
9.800425e-05
9.3618441e-05
5.2644446e-05
1.9805055e-05
4.7104935e-05
0.00014137963
0.00018445456
0.00019016265
0.00016651558
0.00012986177
0.00011167069
0.00010149818
7.4974853e-05
4.3680528e-05
2.3085721e-05
1.1452515e-05
7.9029342e-06
7.0633102e-06
7.5437799e-06
8.0177966e-06
1.4408714e-05
2.8632868e-05
5.3526374e-05
7.7616381e-05
8.7733995e-05
7.9791609e-05
7.4475394e-05
9.1218541e-05
0.00011052502
9.77019e-05
6.1352268e-05
1.9080118e-05
4.6138491e-05
0.00013249964
0.00017723926
0.00017819647
0.0001497224
0.00011589663
0.00011336137
0.0001034748
7.866507e-05
5.3181486e-05
2.9777325e-05
1.6321926e-05
1.0586375e-05
9.2306539e-06
9.9964751e-06
1.2627427e-05
2.0300067e-05
3.3747469e-05
5.3454404e-05
7.070711e-05
7.4273416e-05
7.2255956e-05
8.7709319e-05
0.00010896677
0.00011799464
9.4209529e-05
5.7191643e-05
1.5706829e-05
3.1624251e-05
0.00011645539
0.00016380956
0.00016262604
0.00013370094
0.00010443517
0.00011756999
0.00010938665
8.9943862e-05
6.6738807e-05
4.2094185e-05
2.689705e-05
1.8051756e-05
1.4090722e-05
1.5015315e-05
1.8928425e-05
2.6750879e-05
3.9144744e-05
5.4501935e-05
6.7105033e-05
7.2269142e-05
8.4921878e-05
0.0001062419
0.00012290148
0.00011897336
8.2804283e-05
3.8502265e-05
2.0927686e-05
9.6734797e-05
0.00014444616
0.00014418755
0.00011929176
9.9834145e-05
0.00012139307
0.0001189524
0.00010407577
8.3301311e-05
5.9826364e-05
4.5747236e-05
3.5773395e-05
2.8471099e-05
2.6465544e-05
3.02326e-05
3.7935196e-05
4.9287383e-05
6.2115691e-05
7.338835e-05
8.5625064e-05
0.0001062175
0.00012415173
0.0001297692
0.00011091786
5.9067879e-05
2.8387997e-05
7.2256197e-05
0.00011950756
0.00012265882
0.00010515933
9.5085106e-05
0.00012396848
0.00012826513
0.00011776872
0.00010054688
7.9051967e-05
6.9112259e-05
6.402047e-05
5.8029401e-05
5.4364337e-05
5.6418486e-05
6.2871097e-05
7.2224522e-05
8.3499824e-05
9.5822322e-05
0.00011104772
0.00012621105
0.00013314329
0.00012448096
9.2901231e-05
4.3402044e-05
1.9826976e-05
4.4105536e-05
9.0107222e-05
9.7760283e-05
8.907172e-05
8.7749446e-05
0.0001235591
0.0001374312
0.00013084882
0.00011699186
9.5636065e-05
8.7104535e-05
8.6830045e-05
8.3683807e-05
8.3629879e-05
8.7227625e-05
9.2322527e-05
9.9147416e-05
0.00010864503
0.00011986976
0.0001300516
0.00013489197
0.00012888649
0.00010624529
6.409741e-05
2.9584617e-05
7.5871019e-06
1.3275978e-05
5.7121537e-05
7.0228431e-05
7.0291543e-05
7.5702043e-05
0.00011717411
0.00014264978
0.00014393385
0.00013328372
0.00011079765
9.5212971e-05
9.3518029e-05
9.9901414e-05
0.00010346135
0.00010458489
0.00010914251
0.00011616966
0.00012382054
0.00013031502
0.00013199701
0.00012475427
0.00010464332
6.8313793e-05
2.6465557e-05
1.1172422e-05
2.9469735e-05
4.3758019e-05
4.9770756e-05
5.8282119e-05
0.00010193566
0.00014026326
0.00015026363
0.00014818059
0.0001316379
0.00011126746
9.6037055e-05
9.4798011e-05
0.00010514382
0.00011514603
0.00011952091
0.00012231296
0.00012420888
0.00012256593
0.00011452127
9.7602712e-05
6.9981138e-05
3.6348078e-05
2.3669053e-05
2.2473841e-05
3.1324892e-05
3.9115032e-05
7.4814678e-05
0.00012686706
0.00014473458
0.00015381534
0.00014816519
0.00013318398
0.00011470474
9.9263872e-05
8.9646858e-05
9.0314585e-05
9.4300922e-05
9.5532947e-05
9.2912893e-05
8.5421886e-05
7.1732492e-05
5.2137412e-05
2.9625925e-05
2.0660671e-05
8.6876531e-06
1.9483548e-05
2.3992291e-05
4.2670774e-05
9.9034172e-05
0.00012502627
0.0001448634
0.00015135451
0.00014800038
0.00013679175
0.00012046443
0.00010303526
8.8001287e-05
7.6586915e-05
6.749977e-05
5.7676336e-05
4.638745e-05
3.4026575e-05
2.2514101e-05
1.6938852e-05
1.0288626e-05
1.3150111e-05
1.8304071e-05
5.6742522e-05
8.8137306e-05
0.00011426168
0.00013246425
0.0001401084
0.00014011004
0.00013352744
0.00012184188
0.00010683155
9.0097521e-05
7.2970994e-05
5.6870595e-05
4.2598927e-05
3.0700963e-05
1.6124416e-05
1.2283432e-05
1.024556e-05
2.1384555e-05
4.0852913e-05
5.809867e-05
8.5693722e-05
0.00010328257
0.00011251362
0.00011284897
0.00010666725
9.4917888e-05
7.9277196e-05
6.3063721e-05
4.7057142e-05
3.3586554e-05
1.9521656e-05
1.3896143e-05
1.192025e-05
3.1424595e-05
4.6591701e-05
6.5133527e-05
7.1383816e-05
7.1231861e-05
6.4871733e-05
5.2058154e-05
4.2512662e-05
2.8833324e-05
1.0908306e-05
8.8202342e-06
1.8283896e-05
1.9960834e-05
2.0281298e-05
1.7505334e-05
1.216954e-05
2.6753098e-05
4.3158068e-05
5.3085366e-05
5.3688511e-05
5.0245399e-05
4.0475435e-05
2.6001781e-05
1.6707421e-05
3.052311e-05
7.8116005e-05
0.00010509987
0.00012710327
0.00014500668
0.00015503603
0.00015712293
0.00015190145
0.00013681939
0.00011394291
7.8142473e-05
5.4058116e-05
1.4294858e-05
8.3895948e-06
1.4130146e-05
6.0004763e-05
9.2990436e-05
0.00012211403
0.0001464351
0.00016564768
0.00018003596
0.00018932135
0.00019373773
0.00019309076
0.00018667917
0.00017451173
0.00015393761
0.00012333474
8.1059495e-05
3.1634738e-05
1.6882639e-05
1.8132134e-05
4.3944961e-05
6.9680047e-05
9.4671048e-05
0.00011551268
0.00013243618
0.00014711411
0.00016128022
0.00017515175
0.00018746649
0.0001963241
0.0002001577
0.00019807013
0.00019005548
0.00017100472
0.00013866049
8.5483681e-05
4.2907479e-05
1.2874069e-05
1.5913075e-05
3.1883386e-05
5.096022e-05
7.0804665e-05
8.7580088e-05
0.00010028491
0.00010922295
0.0001155969
0.00012203865
0.00013235001
0.0001477243
0.00016587637
0.00018242665
0.00019337132
0.00019720656
0.00019121048
0.00017280244
0.00013351279
8.5265742e-05
3.511503e-05
1.2620532e-05
9.1391629e-06
2.7792077e-05
4.8467748e-05
7.4662538e-05
0.00010028341
0.00011976381
0.00013074259
0.0001329648
0.00012933327
0.00012278746
0.00011444173
0.00011356919
0.00012620537
0.00014545752
0.00016696004
0.00018394915
0.00019141011
0.00018600454
0.00016170562
0.00012070145
6.4649242e-05
2.3981532e-05
1.4791131e-05
2.319408e-05
5.7853232e-05
0.0001025023
0.00013995694
0.00016163544
0.00016986826
0.00016846102
0.00016174162
0.00015218358
0.00014130494
0.0001299366
0.00011747935
0.00011146677
0.00011572092
0.00013450196
0.00015873505
0.00017821197
0.00018518545
0.00017357124
0.00014265654
9.0652765e-05
3.7690342e-05
3.1415708e-05
1.5160773e-05
1.7482883e-05
7.0389071e-05
0.00012694693
0.00016698751
0.00018747033
0.00019400584
0.00019150513
0.0001830887
0.00017072839
0.00015517072
0.00013836417
0.00012234392
0.00010951297
0.00010038248
9.6935861e-05
0.00010681604
0.00013069302
0.00015799319
0.00017593492
0.00017498507
0.00015309694
0.00010855643
5.2289663e-05
4.2863597e-05
2.7134773e-05
5.0532227e-05
0.00011581618
0.0001687813
0.00019842133
0.00020947899
0.00020789823
0.00019767194
0.00018169009
0.00016167221
0.00013961235
0.00011848063
0.00010085188
8.849234e-05
8.022475e-05
7.6831789e-05
8.1872965e-05
0.00010242208
0.00013455252
0.00016204207
0.00017052394
0.00015541953
0.0001183724
6.4464236e-05
5.6174062e-05
4.8542888e-05
2.2171959e-05
9.0936296e-06
7.5997821e-05
0.00015490073
0.00020079941
0.00021929105
0.00021986417
0.00020759306
0.00018682724
0.00016108929
0.00013222423
0.00010350544
7.9250483e-05
6.2405103e-05
5.3617443e-05
5.1256049e-05
5.2744656e-05
5.8917924e-05
7.6888825e-05
0.00011072873
0.0001459124
0.00016292707
0.00015243762
0.00012149256
7.3076183e-05
7.0410693e-05
6.4800954e-05
3.9416887e-05
2.0899216e-05
0.00011557081
0.0001841235
0.00021846883
0.00022777242
0.00021818024
0.00019390966
0.00016388825
0.00013104773
9.8186864e-05
6.7837881e-05
4.4127449e-05
2.9360592e-05
2.3031044e-05
2.4407027e-05
3.0336791e-05
3.8905745e-05
5.6010703e-05
8.9892789e-05
0.00013025628
0.00015271054
0.00014658724
0.00011957776
7.8594432e-05
8.5018436e-05
8.18208e-05
4.924709e-05
1.6952562e-05
0.00014347245
0.00020264604
0.00022895297
0.00022907609
0.00020753663
0.00017157386
0.00013862902
0.00010572929
7.3923272e-05