/*--------------------------------*- C++ -*----------------------------------*\
| =========                 |                                                 |
| \\      /  F ield         | OpenFOAM: The Open Source CFD Toolbox           |
|  \\    /   O peration     | Version:  2406                                  |
|   \\  /    A nd           | Website:  www.openfoam.com                      |
|    \\/     M anipulation  |                                                 |
\*---------------------------------------------------------------------------*/
FoamFile
{
    version     2.0;
    format      ascii;
    arch        "LSB;label=32;scalar=64";
    class       volScalarField;
    location    "600";
    object      p;
}
// * * * * * * * * * * * * * * * * * * * * * * * * * * * * * * * * * * * * * //

dimensions      [0 2 -2 0 0 0 0];

internalField   nonuniform List<scalar> 
150387
(
0.007874082
0.010438296
0.0089014283
0.0082055345
0.0078100083
0.007567336
0.0085882864
0.0084047984
0.013944057
0.012261095
0.010300486
0.0081236042
0.0065324234
0.0053224149
0.0046569014
0.0044252772
0.0045811742
0.0052519131
0.006088015
0.0067725687
0.0075053421
0.014159299
0.011370293
0.0080637618
0.0052959593
0.0030820422
0.0015212658
0.00049925566
7.7572173e-05
0.00016505354
0.00069125366
0.0016142952
0.0027591841
0.004098695
0.0053914015
0.0068994073
0.008068937
0.012759024
0.012135432
0.0091116949
0.0053169784
0.0018295104
-0.00099899835
-0.0031022517
-0.0044860277
-0.0052404751
-0.0053896053
-0.0049951751
-0.0041297269
-0.002851997
-0.0012876704
0.00050172026
0.0024000995
0.0043726131
0.0060593781
0.0074671669
0.011541409
0.011079717
0.0075866568
0.003460264
-0.00064882195
-0.0041937193
-0.0069550826
-0.0089870398
-0.010331147
-0.01102125
-0.011054324
-0.010466449
-0.0093299971
-0.0077275679
-0.0057895423
-0.0036072114
-0.0013137659
0.0010575476
0.0034306243
0.0056726396
0.0074625307
0.0099589957
0.0070809372
0.0028219713
-0.0016728682
-0.0058582711
-0.0094771081
-0.012353995
-0.014540261
-0.016058519
-0.016873332
-0.01694616
-0.01627597
-0.014928628
-0.013011058
-0.010682062
-0.0080805026
-0.0053608254
-0.0025883142
0.00013995674
0.0030361122
0.0058198119
0.0086238176
0.010068212
0.0076636585
0.0039553795
-0.00029876604
-0.0046103284
-0.0088134212
-0.012645447
-0.016054941
-0.018888192
-0.021061698
-0.022445562
-0.022896829
-0.022340512
-0.020863862
-0.018633366
-0.015868256
-0.012784366
-0.0095930945
-0.0064065534
-0.0033317117
-0.00019058676
0.003338877
0.0071958504
0.0087098128
0.010474534
0.0084543897
0.0054114112
0.0015800746
-0.0025410605
-0.00667402
-0.010614306
-0.014421553
-0.018113501
-0.02173258
-0.024989597
-0.027448581
-0.028740031
-0.028604877
-0.027133481
-0.02457954
-0.02130136
-0.017634983
-0.01387759
-0.010216041
-0.0068083482
-0.0034951092
0.00040279642
0.004693208
0.0082623814
0.0089611532
0.0066960415
0.0032348416
-0.00080034516
-0.0050932478
-0.0094105562
-0.013640438
-0.01773467
-0.021626993
-0.025237555
-0.028729917
-0.032114634
-0.034505193
-0.035069024
-0.033735852
-0.0308368
-0.026926898
-0.022538615
-0.018094534
-0.013874726
-0.010119695
-0.006619459
-0.0023358453
0.0023688208
0.0069503694
0.0096795561
0.0078214701
0.0049116337
0.0010860126
-0.0031931261
-0.0077523952
-0.012395127
-0.017075047
-0.021764193
-0.026420374
-0.030969968
-0.035310523
-0.039066562
-0.041936884
-0.042800434
-0.041229197
-0.037603806
-0.032729967
-0.027387471
-0.022106623
-0.017232574
-0.013239745
-0.0093793888
-0.004676378
0.00042876253
0.0054143014
0.0089518052
0.0092637213
0.0066762466
0.0033355509
-0.00086805629
-0.0054350483
-0.010301868
-0.015325303
-0.020515313
-0.025886493
-0.031425676
-0.037144184
-0.043175976
-0.049200981
-0.053369245
-0.053884417
-0.051014971
-0.045573713
-0.038861013
-0.032059826
-0.025735503
-0.020260266
-0.016086521
-0.011698213
-0.0066383792
-0.0012095996
0.0038793212
0.0074348642
0.0084125933
0.0055556511
0.0019506742
-0.002572211
-0.0074218081
-0.012583438
-0.017975082
-0.023654987
-0.029675419
-0.036046234
-0.043025887
-0.051409591
-0.060455611
-0.066499864
-0.067503089
-0.063477076
-0.05511076
-0.045344486
-0.036338668
-0.028739973
-0.023012252
-0.018418605
-0.013431942
-0.0080503717
-0.0024339554
0.002754342
0.0063675855
0.008332685
0.0079249243
0.0048033417
0.00089932102
-0.0039072641
-0.0090275438
-0.014445043
-0.020140736
-0.02620882
-0.032687123
-0.03955734
-0.047583764
-0.058382445
-0.069627181
-0.075194791
-0.075118857
-0.0728488
-0.063516486
-0.050936924
-0.039490257
-0.031185445
-0.025185574
-0.019976387
-0.014461512
-0.0088404361
-0.0031690527
0.0018703602
0.0054789144
0.0080763676
0.0077439367
0.004663156
0.00031075359
-0.0047630168
-0.010138489
-0.015766043
-0.021651918
-0.027911692
-0.034460488
-0.041207856
-0.049629885
-0.062234912
-0.075277345
-0.080441685
-0.074877142
-0.074545984
-0.066756625
-0.053039982
-0.041009798
-0.032641073
-0.026341299
-0.020563769
-0.014710947
-0.0089655037
-0.0033681971
0.0015665294
0.0050694413
0.0072676876
0.0080006978
0.0048105588
0.00029743895
-0.0050867155
-0.010664881
-0.016448621
-0.022369823
-0.028537956
-0.03460962
-0.040391965
-0.048180112
-0.060659409
-0.071667686
-0.078102645
-0.07445637
-0.073730093
-0.065188283
-0.051626313
-0.040574781
-0.032667136
-0.026223
-0.020149494
-0.014197173
-0.0084813976
-0.003058374
0.0015153659
0.0050625432
0.0070891983
0.0091822262
0.0056106553
0.00089880242
-0.0047717972
-0.01052999
-0.016415579
-0.02223154
-0.028029339
-0.033144135
-0.037423462
-0.044418856
-0.055054806
-0.065025532
-0.070355452
-0.070816486
-0.068137382
-0.059169773
-0.047639075
-0.038405279
-0.031225951
-0.024896715
-0.01884426
-0.013000062
-0.0074642828
-0.0023055043
0.0019451177
0.0050912437
0.0069203556
0.010325101
0.0068466273
0.0021263018
-0.0037835533
-0.0096868951
-0.015631346
-0.02122696
-0.026456278
-0.030321871
-0.033361579
-0.039537084
-0.047112679
-0.054366156
-0.059355735
-0.060642833
-0.057658562
-0.05036942
-0.042015293
-0.034829083
-0.028543769
-0.022602187
-0.01682815
-0.01125972
-0.0060187496
-0.0012119095
0.002671288
0.0050963628
0.0067871567
0.011509832
0.0086966196
0.0039701807
-0.0020506018
-0.0080824922
-0.01408387
-0.019422323
-0.023957918
-0.026605618
-0.029182866
-0.034390653
-0.039746366
-0.044288453
-0.0471287
-0.04763855
-0.045730696
-0.041327915
-0.035873105
-0.030433206
-0.025051352
-0.019664541
-0.014323137
-0.0091403434
-0.0042796236
9.7618402e-05
0.0035912384
0.0056739198
0.010887635
0.0065786337
0.00045897985
-0.0056750819
-0.011773626
-0.016857415
-0.020690583
-0.022392944
-0.024990986
-0.029318797
-0.033485324
-0.03676718
-0.038555675
-0.038489405
-0.03661788
-0.033608188
-0.029976256
-0.025759143
-0.021181611
-0.016389434
-0.01153228
-0.0067804331
-0.0023238068
0.0015999155
0.004701414
0.0063600403
0.012834642
0.0098576055
0.0038173795
-0.0024014756
-0.0086523187
-0.01356842
-0.016799841
-0.017925698
-0.020615307
-0.024187876
-0.02761626
-0.030360257
-0.031962166
-0.032094214
-0.030694279
-0.028056535
-0.024784449
-0.021229792
-0.017303467
-0.01304684
-0.0086487614
-0.0043185134
-0.00024841768
0.0031046285
0.0056254824
0.0069880098
0.013695229
0.0079699503
0.001791964
-0.0046112797
-0.0095391227
-0.012433143
-0.013357685
-0.015949012
-0.018967397
-0.021841265
-0.024201602
-0.025746357
-0.026225316
-0.025503081
-0.023639379
-0.020850697
-0.017462784
-0.013738844
-0.0098112677
-0.0057743263
-0.001771467
0.0019139279
0.0049541059
0.0065976692
0.015162435
0.011853469
0.0065259643
0.00015036525
-0.0048996084
-0.007635935
-0.0087744968
-0.011147028
-0.013739311
-0.016180544
-0.018202199
-0.01959755
-0.020198729
-0.019892373
-0.018651647
-0.0165563
-0.013745354
-0.010403892
-0.0066958971
-0.0028394323
0.00094407707
0.0040000327
0.0062602642
0.0062058241
0.015296652
0.01095153
0.0052768165
8.5926107e-05
-0.0026468863
-0.0041823771
-0.0063314996
-0.0085812304
-0.010677233
-0.012413964
-0.01363949
-0.01421921
-0.014062829
-0.01313556
-0.011455495
-0.0091102918
-0.0062351879
-0.0028742433
0.00068551444
0.0038670801
0.0062157062
0.0076787776
0.013811548
0.0092956856
0.0049221937
0.002093803
0.00030840141
-0.0016983882
-0.0036647499
-0.0054597795
-0.0069219943
-0.007936447
-0.0084030971
-0.0082313089
-0.0073874862
-0.0058623543
-0.0037661107
-0.0012250375
0.001787152
0.0045938135
0.0068929044
0.007775047
0.011521021
0.0088541419
0.0059495333
0.0042845904
0.0024877589
0.00084584357
-0.00062539782
-0.0017718502
-0.0025225928
-0.0027933384
-0.0025023584
-0.0016521274
-0.00025089934
0.001541891
0.0037765698
0.0065440649
0.0084048453
0.0098334422
0.0096592882
0.0084357459
0.0071866891
0.0056782636
0.0043625359
0.0032421953
0.002465484
0.0020301883
0.0020077207
0.0025241188
0.00341407
0.0047548727
0.0064048073
0.008106786
0.0097269448
0.0086685028
0.0084336187
0.0075085356
0.0064901075
0.005968256
0.0055847887
0.0053882317
0.0055278338
0.0060505135
0.0068901614
0.0082733703
0.0091632682
0.010175081
0.0077761036
0.0075542778
0.0075761322
0.0078069025
0.0089816546
0.0084888093
0.01116367
0.011072398
0.010550472
0.0083989054
0.0077497075
0.0073843931
0.0072279362
0.0084041022
0.0086062367
0.013246282
0.0098010181
0.0081962128
0.0062460964
0.0049037652
0.0037183928
0.0033292322
0.0033534932
0.0037231273
0.004669375
0.0056411233
0.006556953
0.007699867
0.0088145584
0.01200136
0.012132922
0.0080824951
0.005183759
0.0028034781
0.0009135187
-0.00036961845
-0.0010818125
-0.0012138985
-0.00086885534
-0.00013415218
0.00098004314
0.0021936335
0.0037445141
0.0047999314
0.0069796735
0.0078814316
0.011518629
0.0091694758
0.0063420013
0.0024470355
-0.0006196236
-0.0030440363
-0.0048767801
-0.0060395016
-0.0066321629
-0.0066196273
-0.0060643177
-0.0050539353
-0.003620863
-0.0019439306
-5.3576958e-06
0.0020432485
0.0041596471
0.0055514157
0.0077008019
0.010658146
0.0086977629
0.0054707196
0.001043715
-0.0028599725
-0.0060462804
-0.0085428645
-0.010415663
-0.011606412
-0.012163381
-0.01207846
-0.011373934
-0.010129432
-0.0084195914
-0.0064098631
-0.0041480562
-0.0018199125
0.00065028175
0.0033032281
0.0053929577
0.0078566741
0.010021283
0.0083375034
0.0056705708
0.00086098204
-0.0034665413
-0.0074443991
-0.010866008
-0.013662334
-0.015773043
-0.017227735
-0.01796657
-0.017936231
-0.017146597
-0.015689141
-0.013667228
-0.011263653
-0.0085942916
-0.0058713242
-0.0030544888
-0.00034328714
0.0028593879
0.0051876295
0.0083982308
0.010124119
0.0067687791
0.0025640505
-0.0017794172
-0.006045293
-0.010120683
-0.013889495
-0.017303898
-0.020180739
-0.022327056
-0.023666462
-0.024014245
-0.023291383
-0.021645412
-0.019256474
-0.016380268
-0.013223283
-0.010043705
-0.0068848588
-0.0038983096
-0.00065327815
0.0028279302
0.0071879207
0.0056552345
0.0105892
0.0071394018
0.0042207892
1.1103881e-05
-0.0042576427
-0.0084343393
-0.01244334
-0.016263359
-0.019938116
-0.023503139
-0.026755479
-0.029161849
-0.030298828
-0.02987442
-0.028106994
-0.025277182
-0.021791295
-0.017997441
-0.014242593
-0.010660457
-0.0074160553
-0.0040379121
-0.0002529285
0.0042458438
0.007350833
0.0084616788
0.0058001581
0.0018887573
-0.0023800439
-0.0068022288
-0.01119452
-0.015526532
-0.019778258
-0.023927019
-0.027933829
-0.03174255
-0.035038153
-0.037096173
-0.037073077
-0.035183066
-0.031785667
-0.027489275
-0.02286269
-0.0183853
-0.01427511
-0.01074362
-0.0071092736
-0.002901142
0.0020249624
0.0062614245
0.0088689247
0.0099722574
0.0070667693
0.0037906447
-0.000403767
-0.0048195138
-0.0094797186
-0.014190866
-0.018980191
-0.023857484
-0.028828053
-0.033898804
-0.038946614
-0.043345891
-0.045805278
-0.045753043
-0.043303091
-0.038942946
-0.0334791
-0.027742518
-0.022379007
-0.01766047
-0.013812995
-0.0097696518
-0.0050886629
0.000162023
0.0052040932
0.0088594327
0.0089829591
0.0056890881
0.0021750921
-0.0023815193
-0.0070253244
-0.011982802
-0.01707456
-0.022398251
-0.02800571
-0.033965925
-0.040417176
-0.047397953
-0.05392846
-0.057646025
-0.057070869
-0.053140966
-0.046999774
-0.039739359
-0.032499475
-0.026079987
-0.020787507
-0.016511565
-0.011889742
-0.0068221515
-0.0013437616
0.0037946653
0.0068365839
0.0079977049
0.0043893021
0.0006908598
-0.0041145431
-0.0089832396
-0.014205064
-0.019649152
-0.025466514
-0.0317531
-0.038662327
-0.046579266
-0.056131639
-0.064663585
-0.069513651
-0.068829432
-0.064260457
-0.055560239
-0.045892366
-0.036797285
-0.029313917
-0.023467494
-0.018555338
-0.013356271
-0.0079252124
-0.00234887
0.002864085
0.0058730206
0.0079952521
0.0076192504
0.0033610809
-0.00046154932
-0.0054383521
-0.01053272
-0.015967088
-0.021684457
-0.027857709
-0.034597084
-0.042070781
-0.051241472
-0.062643605
-0.069447453
-0.074517937
-0.074804503
-0.071789657
-0.06227756
-0.050670847
-0.039895946
-0.031722055
-0.025355165
-0.019776917
-0.014077605
-0.008431602
-0.0028642948
0.0019460329
0.0049916801
0.0080690672
0.0063665825
0.0035733195
-0.0011880727
-0.0062623136
-0.011575098
-0.017157318
-0.023012725
-0.029308904
-0.03608985
-0.04355421
-0.053400942
-0.065203835
-0.075560733
-0.08087626
-0.075720624
-0.073083452
-0.064186559
-0.051870557
-0.041071197
-0.032780701
-0.026079468
-0.020007238
-0.014018458
-0.0082948103
-0.0029073555
0.0020674879
0.0048638241
0.0072407665
0.0075013705
0.003378085
-0.0012306848
-0.0065791343
-0.012024896
-0.017675182
-0.023489155
-0.029590852
-0.035810282
-0.04237398
-0.051519049
-0.062176413
-0.071720868
-0.078483441
-0.074871384
-0.07104147
-0.0618253
-0.049930463
-0.040112411
-0.032283529
-0.025525524
-0.019261333
-0.013246856
-0.0076515248
-0.0023749107
0.0017354815
0.0047837518
0.0072760908
0.0085560485
0.0043854564
-0.00071904025
-0.0062281156
-0.011820813
-0.017462959
-0.023073101
-0.028721119
-0.033957975
-0.03934075
-0.047328291
-0.056613633
-0.064469024
-0.068774858
-0.068537277
-0.064607641
-0.055763632
-0.045976917
-0.037605669
-0.030408809
-0.023846933
-0.017709783
-0.011885625
-0.0065385053
-0.001483452
0.0023835559
0.0048260674
0.0074321291
0.009908436
0.0055814401
0.00042027985
-0.0052429712
-0.010924645
-0.01650009
-0.021781688
-0.026840745
-0.030734362
-0.035067194
-0.041507533
-0.048380438
-0.054471169
-0.058425372
-0.058545689
-0.054960651
-0.048114892
-0.0406842
-0.033800723
-0.027396438
-0.021315987
-0.015554583
-0.010071998
-0.0050466926
-0.00034161057
0.0032943982
0.0050823407
0.011245946
0.0074927886
0.0022602068
-0.0035324313
-0.0092749487
-0.014771297
-0.019758676
-0.024084304
-0.026730133
-0.03052265
-0.035613148
-0.040709925
-0.044785671
-0.047204053
-0.047224828
-0.044866153
-0.04020534
-0.034792235
-0.029255098
-0.023733833
-0.018300799
-0.013041575
-0.0079876326
-0.0033397602
0.00087490587
0.0041991128
0.0054445155
0.0091499125
0.0047011546
-0.0011148116
-0.0068496921
-0.012316204
-0.017026497
-0.020493669
-0.02244629
-0.025807641
-0.029921146
-0.033935644
-0.03705034
-0.038697705
-0.038546233
-0.036551235
-0.033157814
-0.029075296
-0.02458721
-0.019878241
-0.015085233
-0.010326985
-0.0056972744
-0.0014031964
0.0023912029
0.0051256641
0.0063692057
0.012481133
0.007689666
0.0020437637
-0.0036572503
-0.0091176771
-0.013555698
-0.016355527
-0.018014416
-0.020976259
-0.024355377
-0.027625482
-0.030205222
-0.031670249
-0.031732615
-0.030290611
-0.027586442
-0.024118585
-0.020307503
-0.016228868
-0.011957203
-0.0076221805
-0.0033768086
0.00063677403
0.0034178655
0.0055621666
0.0069211743
0.013187773
0.011900304
0.0061802934
0.0003795803
-0.0051746361
-0.0094610319
-0.01182318
-0.013471336
-0.0160772
-0.018910491
-0.021622151
-0.023823199
-0.025224367
-0.025576336
-0.024766588
-0.022849236
-0.020071522
-0.016657605
-0.012901228
-0.0089181845
-0.0048637754
-0.00092428701
0.002745772
0.0056461812
0.0065165148
0.013253822
0.0093318051
0.0051526884
-0.00069716399
-0.0048936426
-0.0070473473
-0.008821658
-0.011170056
-0.013606477
-0.015901898
-0.017778503
-0.019067943
-0.019594209
-0.019227649
-0.017939653
-0.015843266
-0.013023468
-0.0096597007
-0.0059258728
-0.0020919358
0.0018898677
0.0042067498
0.0066606967
0.014417911
0.0086265839
0.004543812
-4.2114186e-05
-0.0022190132
-0.0041193184
-0.0062852338
-0.0084109422
-0.010392743
-0.011997765
-0.013116452
-0.013626252
-0.013439388
-0.012511015
-0.010822007
-0.008494099
-0.0055615845
-0.0021124395
0.0016010129
0.0042678901
0.0061641935
0.0068880095
0.013197515
0.0074413012
0.0047816826
0.0024595917
0.00040543846
-0.0016920711
-0.0035757318
-0.0053028023
-0.0066552818
-0.0075915672
-0.0080019179
-0.0078081458
-0.0070119888
-0.0055435165
-0.0035268294
-0.0009800463
0.0021578358
0.004467722
0.0065823797
0.0066408137
0.011354614
0.0088583837
0.005646172
0.0044850951
0.0026022333
0.0010801566
-0.00039202207
-0.0014983309
-0.0022381196
-0.0025112214
-0.0022155844
-0.0013789211
-6.7424855e-06
0.0017676544
0.003954566
0.0072247009
0.0080399405
0.0078333995
0.0087124672
0.0085801904
0.0071360789
0.0057704874
0.0045005742
0.0032618771
0.0025482922
0.0021491837
0.0021421539
0.0028265759
0.003672604
0.0050575195
0.0061258104
0.0074707197
0.01063475
0.0084955601
0.0074525757
0.0065476764
0.0059171461
0.0055014549
0.0052883233
0.0053948044
0.0058025932
0.0068210098
0.0078248287
0.0091012826
0.0079759186
0.0079039864
0.0077772853
0.0075430412
0.0079918234
0.0084900956
0.01005057
0.010210642
0.010052048
0.0077003234
0.007181971
0.0069010937
0.0068271287
0.0081670943
0.0083714737
0.011480497
0.0084453603
0.0071474202
0.0054391915
0.0041975601
0.0030003597
0.0027043028
0.0028290926
0.0033150812
0.0043985625
0.0054619038
0.0064411927
0.0077902009
0.0088829349
0.010802403
0.010805943
0.0068292363
0.0041092416
0.0018889014
7.08895e-05
-0.001108862
-0.0017028049
-0.0017204073
-0.0012789747
-0.00046186832
0.00073128253
0.0019943687
0.0036294342
0.0046490948
0.0070704924
0.0079857491
0.010543805
0.0079415014
0.0053312986
0.0015008017
-0.0014496784
-0.0037486024
-0.0054680458
-0.006533678
-0.0070650341
-0.0070056981
-0.0064104273
-0.0053644409
-0.0038901149
-0.0021770772
-0.00017698672
0.001936705
0.0041578594
0.0054252691
0.0078396526
0.01017589
0.0080203017
0.0050146308
0.00056952564
-0.0033398803
-0.0065271533
-0.0090425442
-0.01087596
-0.012026683
-0.012533487
-0.012407167
-0.011678903
-0.01042527
-0.0087068859
-0.006691305
-0.0044015499
-0.0020305297
0.00052365631
0.0032756833
0.0052681857
0.0078586593
0.00966732
0.0078849526
0.0055108918
0.00057390444
-0.0037437174
-0.007666939
-0.010991001
-0.013720489
-0.015914502
-0.017439482
-0.01820959
-0.018198543
-0.017415489
-0.015969325
-0.013960383
-0.011572335
-0.0089073622
-0.0061768533
-0.0033071372
-0.00054306207
0.0027811389
0.0048197615
0.0081316094
0.010330623
0.0066572865
0.0022124989
-0.0022613401
-0.0065527301
-0.010562442
-0.014182621
-0.017398024
-0.020144744
-0.022344241
-0.023745882
-0.024154998
-0.023486685
-0.021890384
-0.019541756
-0.016703539
-0.013576622
-0.010420199
-0.0072379387
-0.0042073449
-0.00082872861
0.0025606262
0.0067059973
0.0047673781
0.010713478
0.0068918713
0.0039422069
-0.00046337976
-0.004870108
-0.0091297911
-0.013190254
-0.017030261
-0.020673006
-0.024092743
-0.027128185
-0.02941728
-0.030471469
-0.030024326
-0.028309794
-0.025545656
-0.022121257
-0.018380221
-0.01467224
-0.011084231
-0.0077768083
-0.0042613753
-0.00056696184
0.0037274517
0.0064141794
0.0084625203
0.0056745921
0.0015800822
-0.0028666067
-0.0074058667
-0.011870678
-0.016256787
-0.020558444
-0.024773635
-0.028876805
-0.032748571
-0.035930364
-0.037662262
-0.037396544
-0.035431074
-0.032069145
-0.02784065
-0.023280967
-0.018864097
-0.014748505
-0.011101567
-0.0073197487
-0.0032062703
0.0015561339
0.0054462467
0.0078747907
0.0098307935
0.0069302723
0.0035732673
-0.00076586803
-0.0052992183
-0.010030927
-0.01478458
-0.019610797
-0.02452693
-0.029560467
-0.034738276
-0.039920859
-0.044315521
-0.046593754
-0.046284304
-0.04368673
-0.039314777
-0.033906145
-0.028235246
-0.022924223
-0.018168664
-0.014092768
-0.00993053
-0.0053801446
-0.00026987729
0.0046002333
0.0082050937
0.008976902
0.0054264957
0.0019051799
-0.0027646924
-0.0074764145
-0.012472074
-0.017586714
-0.022930072
-0.028552828
-0.034555533
-0.041096824
-0.048144277
-0.054432074
-0.057856801
-0.057115587
-0.053344559
-0.047402101
-0.040280305
-0.033119572
-0.026723909
-0.021268964
-0.016664186
-0.012045605
-0.0071009383
-0.0018141791
0.0033073279
0.0060569903
0.0076868614
0.0039721578
0.0003324245
-0.0045303947
-0.0094165618
-0.01464711
-0.020096924
-0.025912001
-0.032186927
-0.039123234
-0.047079079
-0.056437923
-0.064000361
-0.068526148
-0.06776634
-0.063548199
-0.055629995
-0.046437744
-0.037546066
-0.030019663
-0.023852259
-0.018667573
-0.013536288
-0.0081869676
-0.0027850564
0.0023883789
0.0051538259
0.0075754096
0.0072299259
0.0028097989
-0.00090856621
-0.0058868978
-0.010956946
-0.016374841
-0.022085826
-0.028226906
-0.034940535
-0.042471944
-0.05169441
-0.062478021
-0.068670608
-0.073953731
-0.074215834
-0.070251375
-0.061780697
-0.051047423
-0.040690249
-0.032342899
-0.025622801
-0.019864943
-0.014270755
-0.0086798534
-0.0032572249
0.0013987605
0.0044375948
0.0077366294
0.0057425832
0.0030022887
-0.0017599612
-0.0067513096
-0.012002291
-0.017546131
-0.02338632
-0.029611772
-0.036402769
-0.044066716
-0.053904459
-0.064554497
-0.075066874
-0.080627237
-0.076231663
-0.071960729
-0.063530237
-0.052104586
-0.041693816
-0.033222307
-0.026238796
-0.020112434
-0.014221953
-0.0085238707
-0.003254895
0.0016506863
0.0043801959
0.006899838
0.0069199867
0.0026226033
-0.0019161873
-0.0071382597
-0.01246816
-0.018073827
-0.023846478
-0.02983134
-0.036161592
-0.043133715
-0.052330479
-0.061666276
-0.071357347
-0.078561168
-0.074902454
-0.069928391
-0.061326486
-0.050284558
-0.040606569
-0.032568876
-0.025665725
-0.019421178
-0.013462668
-0.0078773992
-0.0026623971
0.0013282346
0.0045490234
0.0070708309
0.0077794475
0.0036292303
-0.0015414903
-0.0068713983
-0.012298682
-0.017897563
-0.023409881
-0.028901746
-0.034338343
-0.04042903
-0.048318947
-0.056907298
-0.063961317
-0.067693648
-0.067327421
-0.06385892
-0.05584746
-0.046459723
-0.038018157
-0.030664677
-0.02404819
-0.01792772
-0.012114469
-0.0067598559
-0.0017275161
0.0020522915
0.0045421711
0.0072451918
0.0091869786
0.0047057353
-0.00051106469
-0.006018807
-0.011465708
-0.016973204
-0.022071213
-0.026862847
-0.0312373
-0.03623575
-0.042538916
-0.04910351
-0.054839901
-0.058368241
-0.058456277
-0.055142448
-0.048666637
-0.041240415
-0.034218383
-0.027710942
-0.021592821
-0.015817976
-0.010314547
-0.0052556495
-0.00053525716
0.0030937165
0.0049161517
0.010414843
0.0063517755
0.001184029
-0.0044468891
-0.0099066016
-0.015277815
-0.019909564
-0.02403014
-0.027432635
-0.031570542
-0.036507359
-0.041424566
-0.045412767
-0.0478287
-0.04790253
-0.045630878
-0.040973249
-0.035419175
-0.029738025
-0.024125675
-0.018641093
-0.013344084
-0.0082457419
-0.0035416966
0.00070488631
0.0040833407
0.0052681451
0.00766783
0.00340897
-0.0022202794
-0.0076126601
-0.012803043
-0.017083025
-0.02056424
-0.023249998
-0.026727927
-0.030679437
-0.034508608
-0.037523923
-0.039235085
-0.039245334
-0.037416722
-0.033994808
-0.029754918
-0.025130761
-0.020330101
-0.015471821
-0.010654598
-0.005951342
-0.0015730209
0.0022739504
0.0050704
0.0064030164
0.011228299
0.0061501835
0.00074753401
-0.0045102733
-0.0096053608
-0.01364098
-0.016596225
-0.018834381
-0.021802126
-0.025031492
-0.028134335
-0.030567351
-0.031967758
-0.032085593
-0.030755509
-0.028128072
-0.02471334
-0.020848824
-0.016697984
-0.012362502
-0.0079555678
-0.0036216767
0.00049216561
0.0032429633
0.0055197313
0.0070299416
0.012112112
0.010170147
0.0047015274
-0.00055466011
-0.0056876914
-0.0095950999
-0.012201653
-0.014248287
-0.016823211
-0.019528886
-0.022117121
-0.024199632
-0.025492963
-0.025780345
-0.024961907
-0.02303618
-0.0203094
-0.01699164
-0.013273695
-0.0092680126
-0.0051506107
-0.001117692
0.0026835314
0.0057133776
0.0065421931
0.011544939
0.0075299878
0.0041277002
-0.0012514589
-0.0050664031
-0.0075127403
-0.0095230373
-0.011833458
-0.014168049
-0.016373482
-0.018178443
-0.019404828
-0.019865832
-0.019446331
-0.018111975
-0.015973488
-0.013208021
-0.0099041718
-0.0061872487
-0.0023308588
0.0017682929
0.0039472213
0.0069545269
0.01247212
0.0073067436
0.0040276432
-0.00023415514
-0.0026856351
-0.0047082429
-0.0068456929
-0.0089001803
-0.01081969
-0.012380568
-0.013480713
-0.013994204
-0.013817623
-0.012877114
-0.011175964
-0.0088122579
-0.0058594587
-0.0023789967
0.0013839515
0.0039422579
0.0061424363
0.0069551522
0.011738088
0.0065382329
0.0046373461
0.0020925458
-1.3012971e-05
-0.0021109188
-0.0039754685
-0.0056864789
-0.0070231633
-0.0079541407
-0.0083702971
-0.0081977377
-0.0074570837
-0.0060449122
-0.004079777
-0.0015569776
0.0016077473
0.003788847
0.0062571049
0.0066145848
0.010705976
0.0087975653
0.0052902067
0.0042609965
0.0023407395
0.00079747172
-0.00072835183
-0.0018832516
-0.0026816211
-0.0030271516
-0.0028098476
-0.0020288227
-0.00067342773
0.0010372927
0.0031653935
0.0063570276
0.0074545184
0.0071299838
0.008668358
0.0087340852
0.0071201746
0.0056365791
0.0042731926
0.0029029286
0.0020939245
0.0016095232
0.0015257578
0.0022506659
0.0030388195
0.0042520418
0.0050863733
0.0066628677
0.010011228
0.0085226005
0.00745456
0.0064822341
0.0057325462
0.0052755637
0.0050048308
0.005043429
0.0053196567
0.0063566668
0.0070400381
0.008511062
0.0071558142
0.0077736819
0.0076238774
0.0072955523
0.0077062534
0.0080836117
0.0089505255
0.0091021853
0.0091431039
0.0068799465
0.0064966362
0.0063370977
0.0063939591
0.0078198485
0.0081119153
0.0098806032
0.0068195173
0.0058416538
0.0043330898
0.0032680666
0.0021632553
0.0019951999
0.0022443902
0.0028581787
0.0040763831
0.0052759592
0.0063395232
0.0078133569
0.0088902301
0.0093789715
0.0092422931
0.0053336914
0.0027639321
0.00071176382
-0.00098095286
-0.0019947912
-0.0024506537
-0.0023293896
-0.0017699214
-0.0008553673
0.0004371654
0.0017712833
0.0035363866
0.0045081316
0.0072676336
0.0078594633
0.0093500691
0.0063642532
0.0039372679
0.00020021777
-0.0025821761
-0.0046957791
-0.0062564603
-0.0071892131
-0.0076157784
-0.0074822353
-0.0068303098
-0.0057423639
-0.0042210048
-0.0024700694
-0.0003871854
0.0017772246
0.0041685336
0.0052598782
0.0078684589
0.0093721728
0.0069335163
0.0040841115
-0.00033513035
-0.0041582309
-0.007216668
-0.0095976575
-0.011354091
-0.012456969
-0.012895232
-0.012731477
-0.011988473
-0.010742278
-0.009032987
-0.00703134
-0.0047173671
-0.0023273221
0.00032653643
0.003161866
0.0050521187
0.0077334335
0.0091071159
0.00712656
0.0049546605
-0.00016589312
-0.0044563356
-0.0083120849
-0.011547662
-0.014183079
-0.016247046
-0.017743603
-0.018464293
-0.018435787
-0.017656506
-0.016245562
-0.01428232
-0.011944466
-0.0092995881
-0.0065814423
-0.0036565044
-0.00088184907
0.0025743549
0.0043237898
0.0077213925
0.010469076
0.006407986
0.0016476731
-0.0029809447
-0.0073217824
-0.011306987
-0.014854708
-0.017985983
-0.020648661
-0.022734015
-0.024110064
-0.024450223
-0.023751713
-0.022179535
-0.019879524
-0.017104618
-0.014024099
-0.010904223
-0.0076915781
-0.00465491
-0.0011730038
0.0020980079
0.0061384743
0.0042537322
0.010809734
0.0066086185
0.0035167819
-0.001121518
-0.0056703648
-0.010008587
-0.014112306
-0.017971079
-0.021606555
-0.024988625
-0.027942728
-0.030073653
-0.03100365
-0.030459682
-0.028717661
-0.025968706
-0.022588798
-0.018891944
-0.015224777
-0.011613011
-0.0082848416
-0.0046672291
-0.0010974851
0.0030758021
0.0055050001
0.0085421304
0.0055471104
0.001165942
-0.0034883614
-0.0081653146
-0.012714162
-0.017165626
-0.021533538
-0.02582861
-0.030016958
-0.033921275
-0.037038316
-0.038562759
-0.038118768
-0.036045261
-0.032650539
-0.028428221
-0.023884591
-0.019488647
-0.015331179
-0.011617113
-0.00771286
-0.0037151779
0.0009135863
0.0044721968
0.0070154797
0.0096597264
0.0067947766
0.0033130172
-0.0012443856
-0.0059116138
-0.010732403
-0.015540696
-0.020426162
-0.025427442
-0.030582421
-0.035891308
-0.041124216
-0.045425676
-0.047589807
-0.047090188
-0.044413745
-0.040032367
-0.034635556
-0.028960005
-0.023632844
-0.018789371
-0.014578321
-0.010288901
-0.0058171604
-0.00087788791
0.0038247477
0.0073887791
0.0087682514
0.0051096361
0.0015664724
-0.0032576773
-0.0080381642
-0.013077537
-0.018218459
-0.023615561
-0.029343639
-0.035500232
-0.042158047
-0.049104596
-0.055072383
-0.058278972
-0.057451621
-0.053782361
-0.048031615
-0.041073437
-0.033961441
-0.027519915
-0.021903471
-0.0170995
-0.012352064
-0.0074786255
-0.0024050585
0.0026099991
0.0051770623
0.0073735987
0.0034951773
-0.00011998696
-0.005052326
-0.0099402395
-0.015165116
-0.020611473
-0.026477754
-0.032885854
-0.040000497
-0.047975156
-0.056940731
-0.063796629
-0.068062089
-0.067321375
-0.06326616
-0.055826871
-0.047107052
-0.038435156
-0.030856419
-0.024459634
-0.019020214
-0.013812864
-0.0085236411
-0.0033331877
0.0017750705
0.0043713047
0.0070955053
0.0067298308
0.0021846773
-0.0014773145
-0.0064416074
-0.0114531
-0.01681697
-0.022500293
-0.028697866
-0.035592392
-0.043326729
-0.052491238
-0.062603775
-0.068072256
-0.073309673
-0.073513114
-0.069392428
-0.061554313
-0.051537524
-0.041582688
-0.03313661
-0.026154777
-0.020169613
-0.01451113
-0.0089867039
-0.0037520247
0.00079254695
0.0038096576
0.0072500225
0.0049635627
0.0023312263
-0.0024593666
-0.0073518314
-0.012496069
-0.017941853
-0.023732368
-0.030035386
-0.037085994
-0.044977243
-0.054660026
-0.064408129
-0.074201577
-0.079811725
-0.076151092
-0.071162206
-0.06316988
-0.05255901
-0.042490048
-0.033901291
-0.026670826
-0.020365408
-0.014427153
-0.0088002479
-0.0036813191
0.0011980132
0.0038026224
0.0064792714
0.00617964
0.0017247797
-0.0027534904
-0.0078356709
-0.012996957
-0.018454895
-0.024160648
-0.030257724
-0.036887707
-0.044213653
-0.053216007
-0.061582774
-0.070729247
-0.07781416
-0.07451843
-0.069198039
-0.061092714
-0.050844547
-0.041341165
-0.033141207
-0.026024441
-0.019650892
-0.013663438
-0.0081457
-0.0030197839
0.00089723629
0.0040483281
0.0067571902
0.0068566779
0.0026394477
-0.002544374
-0.0076849173
-0.01289499
-0.018294425
-0.023712129
-0.029313478
-0.035167908
-0.041652826
-0.049402934
-0.057333106
-0.063754935
-0.067186863
-0.066682088
-0.063444097
-0.056012128
-0.047128979
-0.038714118
-0.031185696
-0.024389037
-0.018174385
-0.012336791
-0.0070220159
-0.0020154747
0.0016985771