/*--------------------------------*- C++ -*----------------------------------*\
| =========                 |                                                 |
| \\      /  F ield         | OpenFOAM: The Open Source CFD Toolbox           |
|  \\    /   O peration     | Version:  2406                                  |
|   \\  /    A nd           | Website:  www.openfoam.com                      |
|    \\/     M anipulation  |                                                 |
\*---------------------------------------------------------------------------*/
FoamFile
{
    version     2.0;
    format      ascii;
    arch        "LSB;label=32;scalar=64";
    class       volScalarField;
    location    "700";
    object      epsilon;
}
// * * * * * * * * * * * * * * * * * * * * * * * * * * * * * * * * * * * * * //

dimensions      [0 2 -3 0 0 0 0];

internalField   nonuniform List<scalar> 
150387
(
0.0038549164
0.0019769832
0.00179072
0.0016812592
0.0015761637
0.0016792126
0.0020872695
0.0031026491
0.0057868172
0.0013533131
0.001322657
0.0013783163
0.0014421339
0.00152609
0.0016128851
0.0016604663
0.0016340789
0.0015325696
0.0013753567
0.0012520904
0.0022329196
0.00081738213
0.00085089059
0.00094713516
0.0010629264
0.0011784415
0.0013013494
0.0014401385
0.0015960427
0.0017400279
0.0018323655
0.0018299967
0.0017140202
0.0015121588
0.0012834038
0.0011101675
0.0018760354
0.0043738594
0.00078182459
0.00079859038
0.00091224806
0.0010492204
0.0011860661
0.0012923336
0.0013575529
0.0014223534
0.0015352169
0.0017020012
0.0018878547
0.0020158164
0.0020179931
0.0018836068
0.0016384786
0.0013284398
0.0010290469
0.0014416557
0.0049285332
0.00082221052
0.00089368529
0.0010597449
0.0012359104
0.0014207154
0.0016162409
0.0017935359
0.0018560271
0.0017505757
0.0016366857
0.0016582061
0.0018217013
0.0020335039
0.0021639521
0.0021568425
0.0019852252
0.0016842097
0.0013077155
0.0010107924
0.00088229974
0.00090540847
0.00099841664
0.0012318885
0.0014676328
0.0016994928
0.0019080975
0.0020855605
0.002244034
0.0024214549
0.002509659
0.0023109034
0.002003818
0.0018659618
0.001977031
0.0021805088
0.0022858152
0.0022139947
0.0019773629
0.0016199012
0.0012119082
0.00085185183
0.0011581157
0.0010071122
0.001080015
0.0013731296
0.0016758155
0.0019622546
0.0022183707
0.0024299759
0.002594546
0.002721839
0.002808578
0.0028706353
0.002946725
0.0027675038
0.0023648124
0.0021274962
0.0021834182
0.00232591
0.0023432831
0.0021854309
0.0018772522
0.0014681223
0.0010331486
0.00080116583
0.0015069421
0.0041585848
0.0011222192
0.0014346079
0.0018078256
0.0021343833
0.0024132796
0.0026446301
0.0028250761
0.0029711898
0.003100039
0.0032235413
0.0033531168
0.0033256439
0.0032774875
0.0030715095
0.0026488505
0.0023911143
0.0024088367
0.0024568363
0.0023520061
0.0020883639
0.0016904762
0.0012407168
0.000846737
0.00069019308
0.0011623682
0.0013654871
0.00181443
0.0022026006
0.0024902429
0.0027029796
0.0028610915
0.0029962074
0.0031369886
0.0032831466
0.0034172324
0.0035181582
0.0036731278
0.0037610138
0.0035916842
0.0032225204
0.0027991075
0.0026030257
0.0025977593
0.0025055076
0.0022690243
0.0018804147
0.0014205635
0.00096636909
0.00067956159
0.0011036198
0.0012566032
0.0016774618
0.0021552785
0.0025011361
0.0026979551
0.0027932157
0.0028676044
0.0029947568
0.0032064828
0.0034580045
0.0035900127
0.0035147136
0.0033568935
0.0034276762
0.0036295955
0.0035468781
0.0031878608
0.002855774
0.0027573101
0.0026535769
0.0024161305
0.0020355246
0.0015668729
0.0010855479
0.00074539914
0.00084562041
0.0019774034
0.0014440521
0.0019475661
0.0023903261
0.0026384254
0.002704818
0.0026793818
0.0027485145
0.0030363382
0.0034928467
0.0038320449
0.0037047586
0.0028599269
0.0019195482
0.0015474878
0.0020540774
0.0030408607
0.003277498
0.0030501636
0.0028994831
0.0027873216
0.002532412
0.0021521168
0.0016810798
0.0011820104
0.00082359919
0.0008291342
0.0016748063
0.0016423755
0.0021225168
0.0024700266
0.0025735792
0.0024981521
0.0024593112
0.0027415176
0.0033617547
0.0039812482
0.0039887784
0.0025720043
0.00076027648
0.00022622611
0.00015497984
0.00022414333
0.0011973143
0.002716954
0.003055959
0.0029919705
0.0028950075
0.0026261018
0.0022235622
0.0017510307
0.0012523114
0.00088993794
0.00082261208
0.0034257593
0.0014684881
0.0017907693
0.0021877372
0.0023838078
0.0023235272
0.0021804188
0.0023425147
0.0030133535
0.003831166
0.0040792462
0.0032161597
0.00084385654
0.00011187911
0.00015024708
8.5339415e-05
0.00012995702
0.00032435258
0.0017894838
0.0028820724
0.003050116
0.0029760678
0.0026604442
0.0022390638
0.0017717093
0.0012744933
0.00093038639
0.00088838313
0.0018812098
0.0015846942
0.0018684411
0.0021457066
0.0021949317
0.002023304
0.0019892402
0.0025175023
0.0034495006
0.0038619461
0.0036556132
0.0024903775
0.00039464286
0.00010533979
0.00035500527
0.00018573122
0.00020931513
0.00016963802
0.0012107585
0.0027177544
0.0031224725
0.0029914811
0.0025946996
0.0022176482
0.0016984477
0.001230674
0.00095421266
0.0010003466
0.0019058503
0.0017285823
0.0018687346
0.0020088076
0.0019379867
0.0017708147
0.0020136274
0.0029219302
0.0035730413
0.0035670807
0.0033020528
0.0024160022
0.00058536871
9.9771646e-05
0.000173617
0.00012791351
0.00013344673
0.00017222602
0.0011724869
0.0028604801
0.0032142579
0.0028394934
0.0025041884
0.0020549915
0.0015163106
0.0011524886
0.00099929422
0.0010982076
0.0020295002
0.0018966799
0.0018281356
0.0018296179
0.0016879971
0.0016505531
0.0022075699
0.0031665749
0.003235103
0.0032848264
0.0030880199
0.0027952975
0.0013010414
0.00020443581
8.7139022e-05
9.0445297e-05
0.00013056913
0.00047587201
0.0020167668
0.003193304
0.0030244762
0.0026495309
0.0022517223
0.0017161733
0.0013236835
0.0011199705
0.0010654999
0.0011579069
0.00478696
0.0023562206
0.0017749081
0.0016626304
0.0014863677
0.0016362517
0.002392844
0.0029705908
0.002961875
0.0029669954
0.0029459907
0.0030941991
0.0025730814
0.0011503315
0.00041554508
0.0004277329
0.00079511637
0.0017491852
0.0029119318
0.0030059683
0.0026821138
0.0022949631
0.00182702
0.0014384927
0.0012399322
0.0011503266
0.0011239661
0.0012078949
0.003225659
0.0044456072
0.0017438763
0.0015265363
0.0013374697
0.0016499559
0.0023705552
0.00262106
0.0027191654
0.0027171296
0.0027240217
0.0030493131
0.0032615978
0.0028418718
0.0021563878
0.0019575177
0.002266256
0.0026961757
0.0027960282
0.0025685831
0.0022385038
0.0018663475
0.001543158
0.0013672685
0.0012698169
0.0011992081
0.0011280076
0.0011259217
0.0017607168
0.0014278585
0.0012308333
0.0015944651
0.0021101662
0.002313304
0.0024946595
0.0024825912
0.0024435383
0.0027339347
0.0031955407
0.0032834377
0.0030917081
0.0028128643
0.0026869082
0.0026085232
0.0024466421
0.0022053999
0.0019394554
0.0016915128
0.0015264904
0.0014284486
0.0013241094
0.0011969399
0.0010661513
0.0014350032
0.00198183
0.0013411841
0.0011278933
0.0014211632
0.0017620288
0.0020530993
0.002269711
0.0022609793
0.0021732378
0.0023030387
0.0027720513
0.0031285945
0.0030893533
0.0029505391
0.0027409751
0.0025363665
0.0023377193
0.0021275114
0.0019148231
0.0017292191
0.0016012173
0.0014671603
0.0013013688
0.0011142012
0.0010286336
0.0016312818
0.0012443477
0.00099671886
0.0011876085
0.0014613408
0.00179407
0.0020363229
0.002060603
0.001952883
0.0019293941
0.0022222533
0.0027224754
0.0029467073
0.0028437741
0.0026972969
0.002523616
0.0023272654
0.002127449
0.0019286342
0.0017489691
0.0015816017
0.0013879697
0.0011680909
0.00097625276
0.0010942496
0.001500217
0.00087579028
0.00096509132
0.0012108439
0.0015293607
0.0017972707
0.0018795753
0.0018055169
0.0016864376
0.0017459912
0.0020935166
0.0025191625
0.0026552195
0.0025422438
0.0023848991
0.0022077968
0.0020130063
0.001813331
0.0016220959
0.0014140234
0.0011842894
0.00096245774
0.0008639502
0.0029204218
0.00092509637
0.00080093029
0.00098640974
0.0012759864
0.0015627576
0.0017152405
0.0017083804
0.0015921939
0.0015045959
0.0015799462
0.0018420299
0.0021228017
0.0021816221
0.0020604963
0.0018978274
0.0017249665
0.0015455532
0.0013476214
0.0011345844
0.00093464103
0.00092003735
0.0018292824
0.00081184045
0.00080595863
0.0010275895
0.0013006213
0.0015061099
0.0015766859
0.0015134331
0.0013969711
0.0013352878
0.0013869356
0.0015149228
0.0016132679
0.0016013133
0.0014972236
0.001353359
0.0011863768
0.0010025953
0.00082664961
0.00073992541
0.00094017585
0.0010786339
0.00085881208
0.0010389523
0.0012496892
0.0013915904
0.0014096035
0.0013294247
0.001227591
0.0011738156
0.001172955
0.0011840493
0.0011598135
0.0010814853
0.00096866199
0.00084673206
0.00075424947
0.00080977174
0.0014542018
0.0019235257
0.00097386781
0.0010151526
0.0011664809
0.0012676518
0.001277123
0.0012092593
0.0011172506
0.001039506
0.00097764855
0.00091367962
0.00083348577
0.0007563071
0.0007053949
0.00079150253
0.0025295201
0.0026736401
0.001203284
0.001148589
0.001244765
0.0012561959
0.0012226277
0.0011445457
0.0010532889
0.0010132471
0.00099518583
0.0010400504
0.0018188025
0.0026799452
0.0020273624
0.0018841282
0.001849395
0.0021022815
0.0038932337
0.0073998382
0.0033822572
0.0022317901
0.0020273185
0.0019095922
0.0018330405
0.0019468245
0.0017713416
0.0027836888
0.0017529584
0.0013778305
0.0013185847
0.0013272706
0.0013731939
0.0014618261
0.0015569476
0.0016145333
0.0015894628
0.0014915586
0.0014686763
0.0013078583
0.0025331171
0.0035901405
0.0017232249
0.00089651114
0.00087358374
0.0008765355
0.00089105973
0.00091747903
0.00096195293
0.0010434548
0.0011776187
0.0013435209
0.001479251
0.0015279883
0.0014456069
0.0012938598
0.0011393509
0.0013748564
0.0011457442
0.0013275481
0.00077338488
0.00075234595
0.00077081154
0.00079399749
0.00081212003
0.00082359068
0.00082593976
0.00083268469
0.00085905288
0.00096155221
0.0011423579
0.0013393229
0.0014400844
0.0014103135
0.0012484627
0.0011062483
0.0010161126
0.0013362048
0.0014783219
0.00089347568
0.0008711126
0.00093281196
0.0010081587
0.0010785932
0.0011407692
0.001194945
0.0012322172
0.0012114835
0.0011238958
0.0010329531
0.0010331431
0.0011116304
0.0012740878
0.0013925697
0.0013664103
0.0011986382
0.00099015505
0.00090116375
0.0010791457
0.0023019984
0.0010157391
0.00099816789
0.001103026
0.001220594
0.0013229684
0.0014113849
0.0014899399
0.0015545786
0.0016088465
0.0016513816
0.0016341334
0.0014840475
0.0012840125
0.0011563488
0.0011814162
0.0012817767
0.0013671219
0.0013055515
0.0011108981
0.00089364489
0.00079070649
0.0010659062
0.0013290959
0.0011255008
0.0012317079
0.0013835706
0.0015017058
0.0015800643
0.0016414135
0.0016995667
0.0017557334
0.0017974767
0.0018199841
0.0018388668
0.0018263822
0.0016920823
0.0014436449
0.0012676129
0.0012492225
0.0013159094
0.0013406573
0.0012215244
0.00099454166
0.00077683774
0.00060653868
0.0012732314
0.0014502139
0.0011609022
0.0012987996
0.0014927465
0.0016181423
0.0016624899
0.0016686846
0.0016871793
0.0017237708
0.0017651141
0.0017775877
0.0017587922
0.0017395431
0.0017481048
0.0017676406
0.0016733604
0.0014691714
0.0013155524
0.0013080451
0.0013414642
0.0012884783
0.0010985406
0.0008447157
0.00061294557
0.00064142783
0.0012866352
0.0013324196
0.0015474871
0.0016899138
0.0017013587
0.0016419538
0.001627548
0.0016781714
0.001767683
0.0017920404
0.0016947922
0.0015298077
0.0013973778
0.0013798866
0.00146941
0.0015707502
0.0015454638
0.0014094931
0.0013370691
0.0013517661
0.0013318798
0.0011809724
0.00092228161
0.00065325505
0.00051700587
0.0010116019
0.0047348441
0.0014753504
0.0015543697
0.0017290683
0.0017364674
0.0016056636
0.0015393286
0.0016161577
0.0018072539
0.0019181805
0.0017773093
0.0014468003
0.0010908936
0.00084235225
0.00077946766
0.00091346797
0.0011768713
0.0013790488
0.0014110971
0.0013688654
0.0013741248
0.0013712755
0.001245978
0.00098705645
0.00069573805
0.00050419423
0.00060241907
0.0020526084
0.0015443028
0.0017482631
0.0017952683
0.0016134337
0.0014286863
0.0014950108
0.0017868881
0.0020525661
0.0019344649
0.0014427265
0.0008395954
0.00040528092
0.0002124853
0.00017572928
0.00030004892
0.0006472813
0.0010451246
0.0012784177
0.0013562703
0.001399868
0.0014140361
0.0012989185
0.0010317462
0.0007237066
0.00050328568
0.00058101997
0.0035409386
0.0017054556
0.001846667
0.0017026061
0.0013816839
0.0013289438
0.0016382159
0.0020798584
0.0021225551
0.0015840658
0.00080982287
0.00023356751
6.7001504e-05
7.3895361e-05
6.6439358e-05
7.1737395e-05
0.00025691143
0.00069540259
0.0010771967
0.0012935778
0.0014177848
0.0014565147
0.0013380361
0.0010530569
0.00072920648
0.00050557102
0.0005812405
0.0045609448
0.0019939628
0.0018370791
0.0018480136
0.001497783
0.0011808321
0.0013467748
0.0019007912
0.0022125693
0.0018525966
0.0010885031
0.00038803112
7.194635e-05
6.4972446e-05
0.00014920707
0.00011635342
6.6284077e-05
9.9018829e-05
0.00044288272
0.0008951238
0.0012220978
0.001437087
0.0014959324
0.0013559483
0.0010400533
0.00070525427
0.00051483015
0.00062599028
0.00253428
0.0020213404
0.0018984958
0.0017603824
0.0012594134
0.0011074351
0.0014937247
0.0020705613
0.002056328
0.0015154543
0.00087689124
0.00030186597
5.56904e-05
7.2404658e-05
0.00045346872
0.00015399505
5.6842449e-05
7.1287687e-05
0.00033039545
0.00079656964
0.0012020461
0.0014758113
0.0015210647
0.0013334938
0.00097574928
0.00065319104
0.00053854676
0.0010289879
0.0026789778
0.0020495637
0.0019192363
0.0016325356
0.0010770258
0.0010955809
0.0016109403
0.0020123769
0.0017970626
0.0013990719
0.000923985
0.00038943772
6.6166995e-05
4.9743647e-05
0.00012782714
8.5353075e-05
4.6438532e-05
8.6200204e-05
0.00034821433
0.00082377199
0.0012729808
0.0015255626
0.0015083423
0.0012343573
0.00085357382
0.00061604206
0.00060245794
0.00083853218
0.0028721226
0.0022807757
0.0018775023
0.0014948947
0.00096906431
0.0011014472
0.0016140017
0.0018106105
0.0016432188
0.0014084872
0.0010953793
0.00062003804
0.00017366753
4.6816607e-05
3.9513831e-05
4.3213122e-05
5.698321e-05
0.00018806397
0.00053612186
0.0010066761
0.0013920717
0.0015385534
0.0013950406
0.0010545909
0.00073463298
0.00061952051
0.00069106839
0.00089775012
0.0037639829
0.0029778919
0.0018594436
0.0013827872
0.0009178588
0.0010861303
0.0014936226
0.0016150319
0.001534169
0.0014379648
0.0013112817
0.00096661896
0.00048051417
0.00019525959
0.00012645922
0.00014615151
0.0002563838
0.00049988827
0.00085655797
0.0012188591
0.0014452434
0.0014215899
0.0011680616
0.00085473653
0.00067920553
0.00066079433
0.00081918369
0.0011321236
0.0043893619
0.0018809822
0.0013012582
0.00090094775
0.0010285555
0.0013435178
0.0014554614
0.0014065648
0.0014073198
0.0014694144
0.0013406384
0.00095469291
0.00059655121
0.00047325609
0.00050089762
0.0006321684
0.00084886011
0.00110348
0.0013010631
0.0013356035
0.0011776939
0.00092704148
0.00074202082
0.00069053555
0.00074012603
0.00099185669
0.0012292443
0.0020030651
0.0012697267
0.00088998506
0.00095874634
0.0012163853
0.0013266452
0.0012789928
0.0012897221
0.0014589807
0.0015710285
0.0014224701
0.0010941574
0.00087559238
0.00084477425
0.00092828532
0.0010595367
0.0011782944
0.0012100381
0.0011155794
0.0009447571
0.00079966448
0.00074479418
0.00075632243
0.00082642122
0.0010301838
0.0013745733
0.0020666912
0.0012963143
0.0008836939
0.0008889822
0.0011062915
0.0012184679
0.0011892157
0.0011495976
0.0012819268
0.0015211129
0.0016443546
0.0015262414
0.0013137783
0.0011850224
0.0011442168
0.0011425688
0.0011230338
0.0010550816
0.00094997333
0.00085768932
0.00080982098
0.00079864969
0.0008160446
0.00085016695
0.0011009207
0.003885874
0.005548008
0.001426684
0.00089583336
0.00083353492
0.0010142226
0.001138204
0.0011225884
0.0010530175
0.0010655682
0.0012588181
0.001497879
0.0016080788
0.0015335435
0.0013933133
0.0012762548
0.0011772808
0.0010862709
0.0010029658
0.00093108946
0.00087802666
0.00084157626
0.0008244167
0.00082814467
0.0011550391
0.0018376527
0.001666419
0.00094840012
0.00078883659
0.00093146626
0.0010707454
0.0010976353
0.0010140832
0.00094603538
0.0009769202
0.0011528838
0.001347202
0.0014320967
0.0013856803
0.0012815452
0.0011739804
0.0010805999
0.0010023687
0.00092830326
0.00087176995
0.00082147229
0.00079011877
0.00084938248
0.00082738923
0.0010914867
0.00079646213
0.00086351042
0.00099655788
0.0010737352
0.0010413552
0.00092498782
0.00085552134
0.00086117014
0.00096854672
0.0010976179
0.0011605573
0.001140716
0.0010757984
0.0010019416
0.00092868018
0.00085752302
0.00079439485
0.00075093208
0.00078824191
0.00083184229
0.0016857238
0.00097181097
0.0008875425
0.0009542077
0.0010126607
0.00105874
0.00099716476
0.00087283069
0.00077679134
0.00075652611
0.00077384801
0.00082066223
0.00084709573
0.00083885363
0.00080519658
0.00075992917
0.0007134003
0.00068500626
0.00072252328
0.00076442434
0.0013670351
0.0012338918
0.0011445602
0.00097729666
0.0010310382
0.0010479981
0.00099698681
0.00086583615
0.00075076053
0.00068564819
0.0006603941
0.00065010301
0.00063897136
0.00062096061
0.00059992323
0.00058474525
0.000592367
0.00073767606
0.0013843258
0.0015209098
0.0010019648
0.0010993039
0.0011835556
0.0011269318
0.0010780441
0.00096049529
0.00082597428
0.00072438883
0.00066756397
0.00064284255
0.00063043191
0.00063803462
0.0005758389
0.00081978301
0.0017307856
0.0023346121
0.0012467147
0.001258817
0.0011999803
0.0011340057
0.0010242763
0.00091527069
0.00087798737
0.00087689811
0.0010832083
0.0023311974
0.006193226
0.0030264584
0.002913027
0.0029439806
0.003701389
0.010751635
0.0049367364
0.0031388478
0.0026576587
0.0024065583
0.0022431217
0.0022407222
0.0022756999
0.0032323386
0.0033395223
0.0023808494
0.002196317
0.002133516
0.0021126182
0.0021349828
0.0021543051
0.0021256274
0.0020108467
0.0018394251
0.0017717911
0.0015501002
0.002766792
0.0038193599
0.0039008287
0.0017701108
0.0015704909
0.0015161495
0.0015002815
0.0015066122
0.0015427588
0.001618786
0.0017348421
0.0018632466
0.001943175
0.0019251788
0.0017762266
0.0015631131
0.0013756326
0.0015916376
0.0015356671
0.0018446727
0.0012793456
0.001167686
0.0011182244
0.0010804783
0.0010447104
0.0010150413
0.00099122782
0.0010025812
0.0010787055
0.0012382041
0.00146038
0.0016706187
0.0017565926
0.0016923287
0.0014955422
0.0013194857
0.001222151
0.0016653326
0.0018361707
0.0010598545
0.0010486678
0.0011017281
0.0011513569
0.001180234
0.0011907904
0.0011885671
0.0011791246
0.001143693
0.0010840329
0.0010596535
0.001104326
0.0012676812
0.0014851327
0.0016270552
0.001598178
0.0014109559
0.0011735318
0.0010703665
0.0014241677
0.0028424125
0.0011935261
0.0011808381
0.0012902665
0.0013937297
0.0014567057
0.0014863678
0.0014988325
0.001503489
0.001502603
0.0014987586
0.0014543115
0.0013574843
0.0012220814
0.0011616306
0.00123641
0.0014148002
0.0015428035
0.001494477
0.0012878565
0.0010446474
0.00093851289
0.0012510061
0.0015313991
0.0013448116
0.0014573927
0.0015950028
0.0016737835
0.0016905489
0.0016751623
0.0016594597
0.0016524771
0.0016482067
0.0016410414
0.001635064
0.0016148912
0.0015231837
0.0013540903
0.0012291547
0.0012700024
0.0014045267
0.0014765388
0.0013749276
0.0011371361
0.00089991128
0.00068745255
0.0015305368
0.0015919125
0.0014142076
0.0015507286
0.0017294942
0.0018195556
0.0018009651
0.0017271711
0.0016667675
0.0016481233
0.0016385919
0.0016093381
0.0015562791
0.0015134234
0.0015162855
0.0015443381
0.0015062425
0.0013577889
0.0012526312
0.0013012375
0.0014004023
0.0013925495
0.0012182648
0.00095409663
0.0006878241
0.00074748376
0.0015334416
0.0015934518
0.0018068502
0.001923064
0.0018722336
0.0017197955
0.0016122264
0.0016007729
0.0016330626
0.0016064922
0.0014774972
0.0013049261
0.0011707593
0.0011333469
0.0012109513
0.001342305
0.0013787198
0.0012943825
0.0012608855
0.0013308261
0.0013682225
0.001257831
0.0010102127
0.0007220185
0.00064419168
0.0013043387
0.00549345
0.0017628384
0.0018409554
0.0020070392
0.0019584913
0.0017241589
0.0015302224
0.0015346371
0.0016412596
0.0016591733
0.0014490089
0.0011050185
0.00079785397
0.00060585215
0.00056784709
0.00067626851
0.00091657388
0.0011619268
0.0012504653
0.001241953
0.0012861915
0.0013356607
0.0012669546
0.0010429506
0.00075616808
0.00062626636
0.00089558559
0.0025467023
0.0018570413
0.0020784324
0.0020983245
0.0018125051
0.0014758735
0.0014331994
0.0016089863
0.0017277268
0.0014873488
0.0009895945
0.00050668982
0.0002300996
0.0001223419
0.00012402627
0.00020990207
0.00045440378
0.00081123916
0.001082863
0.0011852916
0.0012520672
0.0013119637
0.0012621636
0.0010505591
0.00077477428
0.00063492913
0.00087708413
0.004032576
0.0020722501
0.0022321705
0.0020283418
0.0015460018
0.0013063746
0.0014743619
0.0017296217
0.0016020319
0.001068018
0.00046867938
0.00012220254
5.647914e-05
6.5624542e-05
6.0084586e-05
5.6662009e-05
0.00016847779
0.00050124875
0.00086998448
0.0010910301
0.0012176489
0.0012982092
0.0012517959
0.001037297
0.00077202271
0.00064877977
0.00085615946
0.0065708817
0.0023711612
0.0022757613
0.0023018564
0.0018427499
0.0012920622
0.0012690049
0.0015843276
0.0016798909
0.0013068725
0.00071618407
0.00021471123
4.917774e-05
5.4590439e-05
0.00014114448
0.00011958267
6.3368975e-05
6.6463399e-05
0.00030384374
0.00069574454
0.00099755861
0.001193335
0.0012975739
0.0012354682
0.0010001643
0.00074786361
0.00068620252
0.00091207885
0.0036192714
0.0024543083
0.0024206958
0.0022909636
0.0016127063
0.0011404995
0.0013023784
0.0016044125
0.0014942877
0.0011066225
0.00061702845
0.0001748237
4.8084933e-05
6.2833547e-05
0.00056918257
0.00016818345
5.5715626e-05
5.9335607e-05
0.00022737809
0.00060506725
0.0009485464
0.0012020178
0.0013038233
0.0011968903
0.0009331353
0.00071551616
0.00075001669
0.0013905851
0.0036195661
0.0025702044
0.0025318963
0.0022394821
0.0014159284
0.0010743985
0.0013260351
0.0014960472
0.0013421344
0.0010811942
0.00067727789
0.00023015926
5.2763888e-05
4.5089029e-05
0.00012215128
5.9476564e-05
4.8522973e-05
7.2288595e-05
0.00024631005
0.00060885117
0.00098224463
0.0012492145
0.0012937615
0.001111814
0.00084107731
0.00071031587
0.00086395919
0.0011094766
0.0036495911
0.0029565332
0.0025758267
0.0021722715
0.001295303
0.0010550978
0.0012874943
0.0013652662
0.0012729212
0.0011331335
0.00082878474
0.00038009203
0.00010033584
4.3067978e-05
3.9628195e-05
4.2348946e-05
5.2595951e-05
0.0001345506
0.00036237517
0.00073383045
0.001100095
0.0012917505
0.0012214152
0.00097579864
0.00076774307
0.00076785456
0.0010008138
0.0011535516
0.0041249982
0.0041469751
0.0026459428
0.0021180882
0.0012568702
0.0010461984
0.001220408
0.0012770035
0.0012213328
0.0011894525
0.0010301031
0.00064192652
0.00028119674
0.000132922
9.632444e-05
9.9827755e-05
0.00016944664
0.00033264004
0.00060920796
0.00095445666
0.0012122995
0.0012427607
0.0010618963
0.00084704244
0.0007724327
0.00088322623
0.0011317781
0.0014429529
0.0062798911
0.0027548794
0.0020889949
0.0012702805
0.0010369238
0.0011765924
0.0012196024
0.0011666962
0.001192021
0.001195325
0.00095988864
0.0006024961
0.00038114773
0.00032644187
0.0003550248
0.00046416712
0.00065489133
0.00090164033
0.0011177784
0.0011860199
0.0010755722
0.00089752823
0.00080695569
0.00085495288
0.0010042994
0.0012922459
0.0015352041
0.00299625
0.002096951
0.0013187455
0.0010366215
0.001158327
0.0011975797
0.0011285911
0.0011264917
0.0012283364
0.0012086094
0.00097876629
0.00073325959
0.00063573058
0.00066829396
0.00076800731
0.00090572267
0.001031892
0.0010796616
0.0010191504
0.00090653728
0.00084232498
0.00087720618
0.0009713781
0.0010662187
0.0012670465
0.0016110159
0.0031797027
0.0021808723
0.0014014149
0.00104842
0.0011546411
0.0012135283
0.0011294036
0.0010596206
0.0011206067
0.00124136
0.0012203813
0.0010628629
0.00092257617
0.00088108014
0.00090525686
0.00094511053
0.00096479943
0.00094346417
0.00089809502
0.00087692006
0.00091229621
0.00098065611
0.0010223673
0.001081433
0.0013517163
0.0040869148
0.0087826619
0.0024994975
0.0015433157
0.0010605862
0.0011448993
0.0012441531
0.0011818128
0.001048182
0.0010023366
0.0010837632
0.0011913639
0.0011845648
0.0010905195
0.00099897346
0.00095146862
0.00093078184
0.00092029646
0.00091134886
0.00091903841
0.00095039804
0.00099821057
0.0010218589
0.0010632948
0.0013649066
0.0020416759
0.0032670914
0.0018383143
0.0010796502
0.0011077985
0.0012554533
0.0012627213
0.0011300903
0.00098068373
0.0009406005
0.00100032
0.0010789651
0.0010917516
0.0010458502
0.00099795254
0.00096440996
0.00095348223
0.00095953686
0.00097915035
0.0009954335
0.00098842184
0.00097054452
0.0010770101
0.0010795753
0.0023813229
0.0011711429
0.0010506709
0.0012179711
0.0013055109
0.0012628353
0.0010979996
0.00093368327
0.00086924472
0.0008880695
0.00094372179
0.00097244958
0.00097260248
0.00096096606
0.00095688328
0.00095591191
0.00094793664
0.00092219151
0.00089319477
0.00095655326
0.0010257326
0.0020855585
0.0013511878
0.0010737458
0.0011711436
0.0012654373
0.0013326136
0.0012750416
0.0011236395
0.00094064961
0.00082992855
0.00080167699
0.00080864852
0.00082516091
0.00083922473
0.00084057405
0.00083006873
0.00080832533
0.00079329833
0.00085528027
0.00091713776
0.001769378
0.0015324245
0.0013393601
0.0012166643
0.0012972815
0.0013623657
0.001345838
0.0012148266
0.0010456945
0.00090991596
0.00083511752
0.00080105673
0.00078124357
0.00076095372
0.0007389678
0.00072058908
0.00073144899
0.0008674123
0.0016010902
0.0017837791
0.0011907491
0.0013305434
0.0014760274
0.0014462374
0.0014536618
0.0013739154
0.0012382264
0.0011057182
0.0010162842
0.00098077986
0.00096407364
0.00099433018
0.00079728643
0.0011087713
0.0019117314
0.0027096467
0.0015170837
0.0015535616
0.0015339493
0.001520615
0.0014476709
0.0013660272
0.0013909584
0.0014463168
0.0018693685
0.0038030703
0.0067866303
0.003619937
0.0036561809
0.0038522052
0.0046043178
0.013807742
0.0061484227
0.0038744534
0.0032094302
0.0028452459
0.0026060931
0.0025636872
0.0025791754
0.0036295733
0.0054968102
0.0035927096
0.0032556668
0.003079537
0.0029572606
0.0028714075
0.0027775928
0.0026368732
0.0024142556
0.0021576403
0.002030631
0.0017703378
0.0030906966
0.0041504979
0.0084727375
0.003257333
0.0028155402
0.0026564839
0.0025450725
0.0024508179
0.0023915797
0.0023822043
0.0024146216
0.0024556601
0.0024428492
0.0023351756
0.0021039809
0.0018226153
0.0015937866
0.0017898099
0.0016210057
0.0044684827
0.0027622901
0.0022718258
0.001974949
0.0017569609
0.0015889493
0.0014682396
0.001392539
0.0013867543
0.0014787737
0.0016658115
0.0019005454
0.002092702
0.0021329083
0.0020075287
0.0017541293
0.0015323464
0.0013720961
0.0019023288
0.0025380796
0.0018595924
0.0016338921
0.0015151884
0.0014443407
0.0013970324
0.0013561916
0.0013145989
0.0012737212
0.0012251877
0.0011857292
0.0012004468
0.0013227322
0.0015601089
0.0018178356
0.0019558316
0.0018913693
0.0016559062
0.0013568612
0.0012037898
0.0015765502
0.0030716876
0.0014571903
0.0014504072
0.0015193699
0.0015941093
0.0016375855
0.0016407583
0.0016137128
0.0015720206
0.0015263364
0.001486162
0.001428308
0.0013431505
0.0012602397
0.0012716878
0.0014398355
0.0016848876
0.0018314327
0.0017601444
0.0015025401
0.001189451
0.0010350476
0.0013297899
0.0017104009
0.0015691871
0.0016845447
0.0018246424
0.001900694
0.0018952352
0.0018333703
0.0017555607
0.0016864547
0.0016288427
0.0015824074
0.0015516483
0.0015214439
0.0014498032
0.00133913
0.0012986194
0.0014259025
0.0016363908
0.0017316639
0.0016049154
0.0013051511
0.0010061602
0.00081234085
0.0017263995
0.0016836528
0.00162792
0.0017842852
0.0019874364
0.0020868688
0.0020483208
0.0019194207
0.001782243
0.0016840133
0.001614044
0.0015412724
0.0014650624
0.0014092399
0.0014029136
0.0014309013
0.0014164743
0.0013335029
0.0013119159
0.0014439487
0.001608743
0.0016122127
0.0013993229
0.0010745238
0.0008233485
0.00094050442
0.0017471577
0.0018437436
0.0020883551
0.0022203196
0.002150508
0.0019373174
0.0017293096
0.0016186209
0.0015634355
0.001475808
0.0013288311
0.0011706394
0.0010598169
0.0010332205
0.0011065888
0.0012355279
0.0012966107
0.0012768241
0.0013213875
0.0014686806
0.0015505762
0.0014311261
0.0011386641
0.00086849351
0.001004733
0.0022161413
0.0059571444
0.0020037149
0.002119652
0.0023188585
0.0022671841
0.001972076
0.0016644594
0.0015352963
0.0015253102
0.0014480273
0.0012155608
0.00090947415
0.00065589356
0.00051338797
0.00050108526
0.00061000475
0.00082896656
0.0010672798
0.0011866871
0.0012377876
0.0013532985
0.0014638557
0.0014125505
0.0011673704
0.00090724004
0.00097449554
0.0015323
0.0028451471
0.002127315
0.0024016582
0.0024467516
0.0021155678
0.0016592041
0.0014442857
0.0014735288
0.0014586506
0.0011907504
0.00076330371
0.0003835621
0.00018093485
0.00011221272
0.00012139865
0.00020193705
0.00041758553
0.00073952449
0.0010063232
0.0011410245
0.0012609065
0.0013805836
0.0013671528
0.0011601134
0.00092718498
0.00098477963
0.0014411404
0.0043751826
0.0023977929
0.0026149879
0.0024128997
0.0018208454
0.0013901828
0.0013751354
0.0014524861
0.0012655317
0.00081838477
0.00035622839
0.00010745515
6.3575216e-05
6.8683112e-05
6.4832225e-05
6.3458616e-05
0.00016552794
0.0004607876
0.00080148115
0.0010262538
0.0011827022
0.00131256
0.0013131868
0.0011273252
0.00092777533
0.0010033645
0.0013547516
0.0090596209
0.0026687022
0.0026767633
0.0027601942
0.0022600332
0.0015189901
0.0012655229
0.0013762476
0.0013397623
0.0010234328
0.00057356483
0.0001848868
5.8596698e-05
6.136918e-05
0.00014050237
0.0001271092
6.6623994e-05
7.3264774e-05
0.00028520977
0.00064026721
0.00092290042
0.0011229986
0.0012662137
0.0012601625
0.0010746802
0.00091734704
0.0010651745
0.001388506
0.0046676049
0.0028096521
0.0029122232
0.0028386313
0.0020579481
0.0013165245
0.0012312768
0.0013307821
0.0011901958
0.00090562424
0.000518404
0.00015201849
5.973099e-05
7.2233491e-05
0.00062131109
0.00018377696
6.264204e-05
6.7313525e-05
0.00022099235
0.00055776172
0.00086136846
0.0011004868
0.0012416742
0.0011975542
0.001005207
0.00091654941
0.0011601976
0.0018442835
0.0043982146
0.0030035099
0.0031242136
0.0028898687
0.0018904723
0.0012109328
0.0012184235
0.0012485214
0.0011095552
0.00090911806
0.00055929827
0.00019047533
6.5154819e-05
5.3064287e-05
0.00012840481
6.4104735e-05
5.9729779e-05
8.3230087e-05
0.0002419265
0.0005525624
0.00087060787
0.0011258366
0.0012185357
0.0011108087
0.00093926733
0.00097054709
0.001295633
0.0015095838
0.0042566326
0.0035117254
0.0032725046
0.0029398475
0.0018141825
0.0011803007
0.0011996978
0.0011917944
0.001092142
0.00096196092
0.00067364883
0.00029996076
0.00010481216
6.1296242e-05
5.1912773e-05
5.4985995e-05
6.768342e-05