/*--------------------------------*- C++ -*----------------------------------*\
| =========                 |                                                 |
| \\      /  F ield         | OpenFOAM: The Open Source CFD Toolbox           |
|  \\    /   O peration     | Version:  2406                                  |
|   \\  /    A nd           | Website:  www.openfoam.com                      |
|    \\/     M anipulation  |                                                 |
\*---------------------------------------------------------------------------*/
FoamFile
{
    version     2.0;
    format      ascii;
    arch        "LSB;label=32;scalar=64";
    class       volScalarField;
    location    "700";
    object      k;
}
// * * * * * * * * * * * * * * * * * * * * * * * * * * * * * * * * * * * * * //

dimensions      [0 2 -2 0 0 0 0];

internalField   nonuniform List<scalar> 
150387
(
0.00069734414
0.00064691725
0.00065058871
0.00064175782
0.00060952171
0.00056558715
0.00050892592
0.00049805145
0.00049484822
0.00046789335
0.00051772321
0.00058093898
0.00063728673
0.00069420393
0.00075128391
0.00078543813
0.00077720102
0.00070940606
0.00059458741
0.00046480993
0.00040066952
0.00028911774
0.00034385085
0.00042867002
0.0005037338
0.00056179953
0.00061829952
0.00068601504
0.00076717152
0.00084949796
0.00090967887
0.00091873744
0.00086224318
0.00074024246
0.00056954708
0.0003946101
0.0003316119
0.00039510948
0.00029536781
0.00037998205
0.00048388386
0.0005637736
0.00061643763
0.00064273176
0.00065465967
0.00066720084
0.00071793466
0.000802198
0.00090473893
0.00098848054
0.001009917
0.00095622075
0.00083341421
0.00064674752
0.00042012095
0.00031101997
0.00037813222
0.00029670433
0.0004480325
0.00059021432
0.00068626109
0.00074918631
0.00079270439
0.00083214915
0.00084178963
0.00077864178
0.00071565203
0.00072266534
0.00081343199
0.00093940556
0.0010275501
0.0010523479
0.00099689492
0.00086669093
0.00066484163
0.00041901195
0.00026029363
0.00032134139
0.00050282939
0.00067619284
0.00078511705
0.00084221116
0.0008607633
0.00085387025
0.00083484301
0.00084855109
0.00090135034
0.00088463274
0.00078121206
0.00075611193
0.00084019684
0.00096660153
0.0010506966
0.0010587992
0.00098745418
0.00084469823
0.00062858481
0.00035751189
0.00027101697
0.0003161221
0.00051051843
0.00073273125
0.00087819408
0.00095759983
0.00098694488
0.00098321315
0.00095364343
0.00090870347
0.00085114132
0.00080653737
0.0008245564
0.00086154064
0.00079740132
0.00077897801
0.00087306221
0.00099518374
0.0010510052
0.0010350228
0.00094488065
0.00078357978
0.0005393278
0.00030396085
0.00028490122
0.00039819646
0.00046595717
0.00073532002
0.00093471102
0.0010477391
0.0010970398
0.0011001301
0.0010623194
0.0010114718
0.00095186732
0.00088530363
0.00082407336
0.00075477023
0.00074449044
0.00079596848
0.00077859451
0.00079464097
0.00091174676
0.0010108431
0.0010301292
0.00098919022
0.00087473011
0.00068170224
0.0004183108
0.00026299274
0.00040055296
0.00066074742
0.00093269846
0.0010951155
0.0011710447
0.001182612
0.0011391983
0.0010796292
0.00099877348
0.00091106653
0.00082519145
0.00075017322
0.00071568996
0.00070612559
0.00069740746
0.000720075
0.00074124285
0.00081681443
0.00094110685
0.00099794259
0.00099285418
0.00091996148
0.00077143291
0.00053084962
0.00030999153
0.00034145888
0.0005177897
0.00084283491
0.001083752
0.0012015619
0.0012261991
0.0011821584
0.0011075228
0.0010141224
0.0009226476
0.00083386936
0.00073728538
0.00065971316
0.00061641279
0.00060612284
0.00062246167
0.00063551225
0.00066445327
0.00072375953
0.00085532712
0.00095029119
0.00096829865
0.00093315112
0.00082261152
0.00061333775
0.00038907664
0.00033157815
0.00045924992
0.00066226923
0.00097995987
0.0011761113
0.0012333647
0.001192185
0.0010988733
0.0010039466
0.00093563287
0.00088311441
0.00078643977
0.00069015676
0.00056913804
0.00041804126
0.00035387765
0.00043995179
0.00056847642
0.0006026096
0.00064473714
0.00076069724
0.00089001089
0.00093509719
0.00092602947
0.00084784174
0.00067105684
0.00045996071
0.00035630449
0.00051618654
0.00078198854
0.0010596485
0.0011936261
0.0011755882
0.0010719106
0.00096685431
0.00093017217
0.000932694
0.00087310573
0.00071884766
0.00050995411
0.00019884659
0.00010509512
9.5765309e-05
0.00010140479
0.00029040762
0.00053735002
0.00058897277
0.00068335047
0.00083198474
0.00090010379
0.00091092897
0.00085944957
0.00071114191
0.0005063332
0.00038492989
0.00056240708
0.00057181292
0.00086430235
0.0010822024
0.0011371394
0.0010450773
0.00091541762
0.00088882312
0.00095781587
0.00095082459
0.00074068431
0.00058219574
0.00022159913
8.6386265e-05
9.2324126e-05
7.0296998e-05
0.0001075511
0.00012764862
0.00040738859
0.00055342462
0.00063922568
0.00078898836
0.00086570687
0.00089571048
0.00086804094
0.00071896202
0.00051692636
0.00043249729
0.00051752827
0.00061691844
0.0008902775
0.0010446261
0.0010319009
0.00089663915
0.00082893306
0.00093218251
0.0010278916
0.00082268828
0.00063694102
0.0005002011
0.00013573206
8.9350136e-05
9.4848039e-05
0.00010370325
0.00015908105
0.00010671412
0.00030470757
0.00052985358
0.0006248223
0.00076347055
0.00083573779
0.00090549362
0.00085561254
0.00067826426
0.00050994573
0.0004965323
0.00050123478
0.00065567026
0.00086724053
0.00095702133
0.00089744169
0.00077493954
0.00084217094
0.0010532088
0.00094205614
0.00074092899
0.00059213717
0.00049788713
0.00016955602
8.6432096e-05
0.00011147135
0.00010819231
0.000124978
0.00010517673
0.00030015779
0.00053958361
0.00063838391
0.00074422232
0.00084885985
0.00089430505
0.0007726203
0.0006122678
0.00052538711
0.00054075759
0.00049488606
0.00065939117
0.00081796986
0.00085181503
0.00077188315
0.00073494831
0.00093764487
0.0010731436
0.00083756638
0.00073976164
0.000597401
0.00054860511
0.00030980986
9.8683253e-05
8.6540349e-05
9.1911774e-05
9.4731632e-05
0.00015641818
0.00043968813
0.00058533913
0.00065378613
0.00076403047
0.00084971588
0.00078599285
0.00066518253
0.00058309429
0.00055831622
0.00055684602
0.00048157882
0.00058127758
0.00075379174
0.00075807023
0.0006746827
0.00075585378
0.0010136778
0.0009689707
0.00085899163
0.00075854438
0.00063675955
0.00059796613
0.00051806454
0.00028793831
0.00014577025
0.00014866327
0.00022095797
0.00039775646
0.00055616977
0.00059519844
0.00067959683
0.00075696448
0.00074447757
0.00067244505
0.00062081268
0.00060269993
0.00059047065
0.00052581623
0.00051361102
0.00067356649
0.00068843487
0.00068145172
0.00061380143
0.00080420105
0.0010000456
0.00092025909
0.00089176698
0.00080038378
0.00068903717
0.00066410347
0.00062573735
0.0005358074
0.00045036347
0.00043020069
0.00047115317
0.00052109721
0.00055048113
0.00059654271
0.00065656376
0.00068047089
0.0006712699
0.00065480681
0.00064958634
0.00063839041
0.0005846261
0.00046148992
0.00062092548
0.00061610558
0.00058122706
0.00081419441
0.0009410524
0.00092453359
0.00092020877
0.00084551548
0.00073975568
0.00073536558
0.00074550949
0.00063991273
0.00056948428
0.00052024189
0.0005137992
0.00053216728
0.00057052507
0.00061917454
0.00066536897
0.00069301908
0.00070852899
0.00071639687
0.00070126121
0.00064262931
0.00052234524
0.0003963631
0.00057947233
0.00054311139
0.00054378047
0.00076400821
0.00087190365
0.00092368108
0.00093894343
0.00088386377
0.00078401636
0.00075334574
0.00084404415
0.00082017481
0.00071539593
0.00067339226
0.00064892412
0.00065499579
0.0006884124
0.00073337345
0.00076847151
0.00078706923
0.00078955382
0.00076925269
0.00070852626
0.00058523675
0.00041308136
0.00036623385
0.00044868329
0.00047161945
0.00066189897
0.00079427546
0.00089742012
0.00094219757
0.00090948889
0.00081848995
0.00075337414
0.00081959652
0.00094909346
0.00090932575
0.00083302067
0.00081954373
0.00082444947
0.00084017713
0.0008564313
0.00086381909
0.00085539182
0.000824786
0.00076017144
0.00063962839
0.00045875081
0.00034140344
0.00039442844
0.00036683305
0.00052444301
0.00069008607
0.00083475552
0.0009174121
0.00091624004
0.00084545246
0.00075542096
0.0007498308
0.00087943727
0.0010119188
0.00098929099
0.00093895406
0.0009289161
0.00092518798
0.00091860073
0.00089796174
0.00085536573
0.00078242759
0.00066291229
0.00048559269
0.00031890763
0.00036269712
0.00030290538
0.00036281264
0.00055165096
0.00072425744
0.00085141417
0.00089471247
0.00085778655
0.00077409511
0.00071303995
0.00074311945
0.00087297516
0.00098906255
0.00099950342
0.00096275947
0.00092886406
0.00089238525
0.00084021393
0.00076218987
0.00064628819
0.00048166103
0.00031379935
0.00030258707
0.00025850646
0.00038147794
0.00056061054
0.00072694835
0.00082562758
0.00083951637
0.00078541658
0.00070811221
0.00066665575
0.00070065989
0.00078256587
0.00084676862
0.00085422011
0.00082065282
0.00076501657
0.00068577812
0.00057204012
0.00042008064
0.00027604864
0.00025576104
0.00027029032
0.00036382489
0.00053221678
0.00068166081
0.00076079848
0.00076049513
0.00070490175
0.00064203213
0.00061534366
0.00063029508
0.00065982626
0.00066708988
0.00063026079
0.00055766068
0.00046019057
0.00034752299
0.00027134459
0.00028111625
0.0002800177
0.00034396513
0.0004668855
0.00059016171
0.00066618008
0.00067070679
0.00063454547
0.00058638298
0.00054694188
0.00051929755
0.00048791859
0.00043640392
0.00036693866
0.00029838179
0.00026826617
0.00033375486
0.00033545867
0.00040806556
0.00048379644
0.00057076268
0.00060524642
0.00059290196
0.00055029018
0.00049246103
0.00043375014
0.00039134507
0.00034926101
0.00039368266
0.00047848721
0.00047634576
0.00048439679
0.00049895876
0.00054889419
0.00057668149
0.00090491503
0.00096486355
0.00097146569
0.00094384788
0.00092322458
0.00088683959
0.00083366199
0.00074278987
0.00071659639
0.00058753735
0.00066049167
0.00071276326
0.00078646948
0.00087868724
0.00098997275
0.0011054039
0.001196083
0.001209669
0.0011383811
0.00097640185
0.00080689141
0.00059025267
0.00056602218
0.00037449689
0.00048394509
0.00055777875
0.00061808366
0.00066996395
0.0007173072
0.00077094076
0.00085047533
0.00096442025
0.0011075025
0.001247026
0.0013326686
0.0013035036
0.0011616628
0.00093922438
0.00066425011
0.00048394899
0.00037310852
0.00048517113
0.00060510354
0.00071683992
0.00079924802
0.00085032776
0.00087369042
0.00086890259
0.00085350193
0.00085917059
0.00092663915
0.0010715456
0.0012461707
0.0013750164
0.0013832983
0.0012571704
0.00099161584
0.00070425224
0.00045462427
0.00040072478
0.00058595147
0.00078460046
0.0009592596
0.0010861831
0.0011668361
0.0012107796
0.0012300541
0.0012339856
0.0012031125
0.0011310216
0.0010481938
0.0010226989
0.0011093956
0.0012700214
0.0014025736
0.0014193417
0.0012670432
0.00099041878
0.00066829959
0.00040299557
0.00045600338
0.00065392769
0.00091230961
0.0011448057
0.0013081752
0.0014048993
0.0014507346
0.0014587974
0.0014354537
0.001395849
0.0013673106
0.0013432583
0.0012845643
0.0011881605
0.0011275924
0.0011763948
0.0013144744
0.0014299376
0.0014101727
0.0012240116
0.00091702881
0.00058038859
0.00036166239
0.00063285526
0.0009533521
0.0012543642
0.0014621921
0.0015735419
0.0016118985
0.0016031617
0.0015656292
0.0015053257
0.0014207683
0.0013246147
0.0012597964
0.001255155
0.0012527974
0.0012086735
0.001176835
0.001237229
0.0013653892
0.00143877
0.0013588133
0.001121034
0.00077424222
0.00046199317
0.00036717597
0.0005216825
0.00092530426
0.0012828407
0.001537904
0.0016640739
0.0016852059
0.0016453215
0.001580282
0.0015037673
0.0014066325
0.0012861505
0.0011598196
0.0010529786
0.0010009152
0.0010417276
0.001115155
0.0011511727
0.0011907542
0.0012930544
0.0014061922
0.0014109842
0.0012536871
0.00094318508
0.0005916321
0.00035315836
0.00079664745
0.0011931984
0.0015230043
0.0016898744
0.0017014112
0.0016268163
0.0015398345
0.0014638934
0.0013703828
0.0012227098
0.0010404045
0.00087121304
0.00075244216
0.00070044549
0.0007258554
0.00084259044
0.00098709668
0.0011015136
0.0012190378
0.0013518081
0.001413487
0.0013258189
0.0010628406
0.00070912802
0.0004123787
0.00037546
0.00070071215
0.00099432381
0.0014180231
0.0016608506
0.001690368
0.0015787843
0.0014717666
0.001422868
0.0013736172
0.0012314485
0.00098689032
0.00072742023
0.00052796686
0.00041001248
0.00038526908
0.00043094925
0.00055159356
0.00074020787
0.00093751652
0.0011171595
0.0012862765
0.0013917491
0.0013573733
0.0011362484
0.00079871096
0.00046228984
0.00037860675
0.00069867468
0.0012005217
0.0015598852
0.0016597963
0.0015421923
0.0013814379
0.0013693941
0.0013958931
0.0013123794
0.0010239672
0.00066341335
0.00036541988
0.00019345002
0.0001224365
0.00011709898
0.00017136981
0.00030657911
0.00050928775
0.00074713941
0.0009871929
0.0012095667
0.0013578965
0.0013631152
0.0011714671
0.00085228546
0.00050116418
0.00039530959
0.00076226972
0.0013336476
0.0015929036
0.0015335096
0.001324218
0.0012511522
0.0013922308
0.0014058519
0.0011625017
0.00071675645
0.00034792035
0.00012626783
7.628263e-05
7.6911376e-05
7.4277418e-05
7.6026151e-05
0.00014700918
0.00033672966
0.00058447349
0.00085857268
0.0011309548
0.0013187904
0.0013525976
0.0011780347
0.00087147332
0.00052284899
0.00042692418
0.00064101125
0.0008832803
0.0013947615
0.0015325389
0.0013306984
0.0011435174
0.0012592829
0.0014587318
0.0013480373
0.0009235071
0.00048782557
0.00020023728
7.2700425e-05
7.4935497e-05
9.0621315e-05
8.353743e-05
7.4050143e-05
8.3930834e-05
0.00022889984
0.00047332432
0.00075967262
0.0010691517
0.0012851095
0.0013340712
0.0011582318
0.0008514172
0.00052779186
0.0004710762
0.00070894965
0.0010948081
0.0013764962
0.0013971247
0.0011215183
0.0010648549
0.0013444468
0.0014877667
0.0012101212
0.00077676696
0.00043373036
0.00016936218
6.6649843e-05
7.8042437e-05
0.00011789861
9.1561054e-05
7.0524872e-05
7.3906684e-05
0.00018687831
0.00042012065
0.00071227826
0.0010435882
0.001270628
0.0013071261
0.0011046713
0.00079139688
0.00053456657
0.00060853583
0.00077091864
0.00095703633
0.0013031254
0.0012296639
0.00095187902
0.0010759079
0.0014088839
0.0014411244
0.0011207191
0.00079699969
0.00047970039
0.00020071201
7.0989593e-05
6.9570091e-05
9.6286401e-05
9.5373481e-05
6.5855288e-05
8.099993e-05
0.00020089787
0.00042794539
0.00073476555
0.0010681373
0.001276905
0.0012500507
0.0010069076
0.00071658671
0.00056935257
0.00058054756
0.00079959326
0.0010087236
0.0011815495
0.0010760068
0.0008492967
0.0011138026
0.0014198518
0.0013636277
0.0011406917
0.0008869737
0.00059482773
0.00030101127
0.00010990008
6.3991791e-05
6.0609007e-05
6.268256e-05
6.8042577e-05
0.00012507318
0.00027922805
0.00051670245
0.00083171862
0.0011360867
0.0012576263
0.0011369727
0.00088102831
0.0006734528
0.00063245794
0.00063631713
0.00080062879
0.0010496443
0.0010605924
0.00094612438
0.00080378122
0.0011220106
0.0013709479
0.0013436662
0.0011909173
0.0010057833
0.00077493148
0.00048104418
0.00023750448
0.00012887805
0.00010122523
0.00010575874
0.00015175944
0.00025728386
0.0004316778
0.00067908959
0.00097025129
0.0011717726
0.0011625776
0.00098564525
0.00078567042
0.00069435497
0.00068763829
0.00065044777
0.0010157925
0.00095369832
0.00083529445
0.00077497057
0.0010846062
0.0013069379
0.0013234458
0.0012199068
0.0011074491
0.00098336442
0.00074192547
0.00046579708
0.00029945655
0.00025915927
0.00027185733
0.00033367463
0.00045229317
0.00063207255
0.00085851454
0.001055753
0.0011137072
0.0010196179
0.00086884106
0.00077221766
0.0007382365
0.00068653218
0.00062667094
0.00087746902
0.00074843213
0.00072855794
0.0010265356
0.0012561818
0.0013046201
0.0012216879
0.0011494878
0.0011255097
0.0010308705
0.00080252606
0.00057691735
0.00047331214
0.00048096655
0.00055033504
0.00066841496
0.00082283304
0.00096926743
0.0010400828
0.0010072137
0.0009199345
0.00085073538
0.00081543523
0.00075585868
0.00064717673
0.00057682294
0.00081427431
0.00068142543
0.00066407163
0.00094616258
0.0011902953
0.0012757976
0.001212395
0.0011467386
0.0011627092
0.0011888617
0.0011330829
0.00097341258
0.00082027421
0.000778048
0.00080834662
0.00087926156
0.00095715495
0.0010045745
0.0010006346
0.00096330024
0.00092841765
0.00090038588
0.00083580963
0.00070193139
0.00056336221
0.00058272701
0.0007467705
0.00063258636
0.0005831902
0.00083729972
0.0011002237
0.0012340229
0.0012038338
0.0011159416
0.001112803
0.001192473
0.0012487715
0.0012385096
0.0011545462
0.0010768792
0.0010508994
0.0010526471
0.0010566848
0.0010482723
0.0010286313
0.0010061815
0.00097114258
0.00089421801
0.00074566011
0.00055454981
0.00047182497
0.000613566
0.00049664123
0.0006961723
0.00097097202
0.0011604049
0.0011933345
0.001105209
0.0010288178
0.0010654693
0.0011841865
0.0012692734
0.0012923269
0.0012475567
0.0012018155
0.0011702839
0.0011394968
0.0011071064
0.0010704678
0.0010175606
0.00092503565
0.00077291792
0.00058460923
0.00047185504
0.00037679716
0.00053486696
0.00078974921
0.001024226
0.0011456659
0.0011135081
0.0010088274
0.00093516386
0.00097073719
0.0010790783
0.0011760542
0.0012162986
0.001212363
0.0011750979
0.0011323791
0.0010787819
0.0010055737
0.00089878057
0.00074712439
0.00056693441
0.00045994959
0.00042134953
0.0003593154
0.00058109515
0.00080779715
0.0010101667
0.001075426
0.0010251164
0.00091678653
0.00083291327
0.00083708106
0.00090262485
0.00096430034
0.00099023175
0.00098043392
0.00094239673
0.00087710282
0.00077982445
0.00064980389
0.00050563684
0.00042479592
0.00038303977
0.00039416395
0.0005571251
0.00077517147
0.000925925
0.00097984619
0.00093681912
0.00083423382
0.0007422174
0.00070543185
0.00071366422
0.00072709907
0.00071604581
0.00067695826
0.00061009296
0.00052128553
0.00042194439
0.00035980193
0.00037010442
0.00041397028
0.00050008864
0.00068339645
0.00079621258
0.00087600959
0.00085783752
0.00077741025
0.00067649114
0.00059187566
0.00053660404
0.0005013033
0.00046156869
0.0004187273
0.00036243757
0.00034243658
0.00053460644
0.00056946029
0.0006657416
0.00074744634
0.00079005303
0.00075252708
0.00067350069
0.00059310279
0.00054056069
0.00049853208
0.00048466069
0.00040859555
0.00079241653
0.00080180757
0.00081675856
0.0008135923
0.00078700063
0.0011797953
0.0012027211
0.001192631
0.0011697172
0.0011319231
0.001073814
0.00098709435
0.00082747508
0.0007915536
0.00093901455
0.0010243188
0.0011105783
0.0012200465
0.0013393821
0.0014621692
0.0015647578
0.0016169381
0.0015699282
0.001431187
0.0012009711
0.00096779851
0.00066091931
0.00062523822
0.0006309658
0.00074372064
0.00081422328
0.00089575811
0.00097891993
0.0010615857
0.0011518193
0.0012644938
0.0014083999
0.0015670612
0.0016914099
0.0017332288
0.0016451703
0.0014433493
0.0011459969
0.00076785949
0.00057666395
0.00045686931
0.00058224116
0.00070255314
0.00082597775
0.00092459319
0.00098922033
0.0010236413
0.0010320564
0.0010417253
0.0010897882
0.0012105944
0.0014047739
0.0016140178
0.0017447595
0.0017240556
0.0015466061
0.0011864051
0.00082396107
0.00050149537
0.00045755742
0.00061793165
0.00083985876
0.0010588207
0.0012287623
0.0013371986
0.0013919596
0.0014059149
0.0013935569
0.0013524608
0.0012827831
0.0012171201
0.0012256575
0.0013563582
0.001566572
0.0017283472
0.0017393468
0.0015341236
0.0011790594
0.00075930569
0.00044817519
0.00051632351
0.00070783165
0.0010111047
0.0013091642
0.0015299165
0.0016612074
0.0017192518
0.0017260137
0.0016979251
0.0016468034
0.001590314
0.0015277606
0.0014450946
0.0013449372
0.0012954238
0.0013801514
0.0015695552
0.001724442
0.0017027696
0.0014667328
0.0010703251
0.00064358209
0.0003888389
0.00070121299
0.001090286
0.0014729445
0.0017423002
0.0018841282
0.0019240503
0.0018989427
0.0018405378
0.0017650788
0.0016769715
0.0015842687
0.0015071461
0.0014609618
0.0014213549
0.0013575522
0.0013269036
0.0014197628
0.0016019916
0.0017137694
0.0016234134
0.0013209214
0.00087896849
0.00049627565
0.0004151535
0.00057597675
0.0010946506
0.0015378775
0.0018518407
0.0020006535
0.0020099837
0.0019349036
0.0018293594
0.0017191878
0.0016008107
0.0014719916
0.0013482936
0.0012527033
0.0012063603
0.0012251659
0.0012682481
0.0012843909
0.0013272567
0.0014700209
0.0016388927
0.0016673939
0.00147528
0.0010829278
0.00064713199
0.00039350844
0.00093196831
0.0014426305
0.001844338
0.0020381067
0.0020299752
0.0019040484
0.0017560472
0.0016308148
0.0015014707
0.0013302576
0.0011339251
0.00095956707
0.00084524177
0.00080600253
0.00084698131
0.00096816658
0.0011057275
0.001213562
0.0013512781
0.0015375523
0.0016432608
0.0015467113
0.0012208043
0.000784179
0.00046220103
0.00045082743
0.00075792149
0.001191084
0.0017274201
0.0020227471
0.0020378179
0.0018623573
0.001676781
0.0015572017
0.001462066
0.0012784101
0.0010019241
0.00071994696
0.00050890311
0.00039564243
0.00038446163
0.00045476844
0.00060601656
0.00082037609
0.0010287169
0.0012205997
0.0014331526
0.001589629
0.0015636036
0.0012973216
0.00088576886
0.00052142085
0.00049148247
0.00077705929
0.0014664032
0.0019234271
0.0020455644
0.0018632083
0.0016078363
0.0015040887
0.0014613705
0.0013288819
0.00099793662
0.00061409931
0.00031177991
0.00015684185
0.00010785993
0.0001105912
0.00016368882
0.00030627957
0.00053966478
0.00081125108
0.0010721094
0.0013303648
0.0015288594
0.001549959
0.0013258902
0.0009444751
0.00056974244
0.00052738992
0.00085790214
0.0016645402
0.0019995244
0.0019262508
0.0016035525
0.0014245569
0.0014672655
0.0014228353
0.0011368371
0.0006786491
0.00030036733
0.00010433654
7.3938683e-05
7.6217869e-05
7.4510126e-05
7.2556268e-05
0.00013590901
0.00033639918
0.0006227145
0.00093115653
0.0012382375
0.001472992
0.0015208482
0.001319361
0.00096363535
0.00060915107
0.00056200204
0.00083644748
0.0010563466
0.0017842625
0.0019805267
0.0017146269
0.0013759341
0.0013825351
0.0014859917
0.0013323156
0.00091326954
0.0004775894
0.0001693894
6.8467989e-05
7.3230534e-05
9.5598393e-05
8.6991008e-05
7.3050733e-05
7.7355309e-05
0.00021842462
0.00049557526
0.00082654965
0.001172225
0.0014317391
0.0014849588
0.0012826331
0.0009438883
0.0006414664
0.00061763698
0.0008967668
0.0013427989
0.0018103946
0.0018816242
0.0014806658
0.0012522928
0.0014201542
0.0014806457
0.0012184759
0.00082165762
0.00043777692
0.00014200983
6.8158916e-05
7.8004772e-05
0.00013760146
9.4350014e-05
6.7743252e-05
7.3406587e-05
0.00017698949
0.00043844788
0.00077792046
0.0011506547
0.0014098448
0.0014365137
0.0012122254
0.00089335124
0.00068313802
0.00079476508
0.00093368253
0.001158836
0.0017719241
0.0017400093
0.0012885335
0.001220449
0.0014474925
0.0014425233
0.0011744467
0.000854489
0.00048446082
0.00017238908
7.0711478e-05
6.6540198e-05
9.4605289e-05
7.3599035e-05
6.8719604e-05
8.2221869e-05
0.000195167
0.00044976894
0.00080331092
0.0011814906
0.0014001245
0.0013611666
0.0011099641
0.0008450269
0.0007573034
0.0007578759
0.00093112534
0.0012212018
0.0016623215
0.0015880511
0.0011642855
0.0012227612
0.0014423143
0.001405385
0.0012037492
0.00094370158
0.00060519059
0.00026727964
9.7435207e-05
6.5670336e-05
6.3168566e-05
6.4891401e-05
7.0475944e-05
0.00012192821
0.00027370111
0.00054590762
0.00091429004
0.0012466424
0.0013675302
0.0012433487
0.0010030461
0.00084748094
0.00085740826
0.00082501964
0.00090371971
0.0012314811
0.0015300144
0.0014383187
0.001094206
0.00121599
0.0014228008
0.0014041327
0.0012490304
0.0010603249
0.00079150848
0.00045135162
0.00021046526
0.00012465255
9.9320859e-05
9.9728849e-05
0.00014325106
0.00024909776
0.00044412489
0.00073917664
0.0010707545
0.0012809753
0.0012721436
0.0011075179
0.00095285396
0.00091901842
0.00092330936
0.00080434567
0.0012315008
0.0013930856
0.0012944878
0.0010378092
0.0011900257
0.0014077585
0.0014166935
0.0012866779
0.0011629261
0.0010006049
0.00071811099
0.0004308986
0.00028950507
0.00025589827
0.00026988882
0.00034234491
0.00048268892
0.00069762207
0.00095808892
0.0011680855
0.00122505
0.0011421439
0.0010324284
0.00099596441
0.0009966143
0.00089127986
0.00074041793
0.0012689199
0.0011571986
0.00097135632
0.0011481
0.0013915578
0.0014344491
0.001317228
0.001218696
0.0011565212
0.0010155663
0.00076055779
0.00056184627
0.0004952722
0.00052413516
0.00061021486
0.00074933232
0.00092183718
0.0010763088
0.0011485497
0.0011277011
0.0010793336
0.0010699014
0.0010826054
0.0010138236
0.00080355993
0.00063734809
0.0011457534
0.001034323
0.00088635229
0.0010764025
0.001357555
0.0014557948
0.0013576674
0.0012417309
0.0012122267
0.0011967837
0.0010979846
0.00092802494
0.00081283672
0.00080167774
0.00085425264
0.00094035435
0.0010298723
0.0010899695
0.0011098589
0.0011165422
0.0011409275
0.0011645525
0.0011099397
0.00091060566
0.00069274914
0.00063043974
0.0010799261
0.00095041773
0.00078490979
0.00096245508
0.001282187
0.0014607492
0.0014143512
0.0012731767
0.0012073777
0.0012304841
0.0012427164
0.0012008473
0.0011131888
0.0010564955
0.0010496657
0.0010734335
0.0011061262
0.0011376565
0.0011700636
0.0012054288
0.0012182826
0.001151268
0.00095287349
0.00066934799
0.00053911503
0.00094639616
0.00069185005
0.00080392621
0.0011384162
0.0014086456
0.0014625654
0.0013370428
0.0011996741
0.001171542
0.0012295257
0.0012730956
0.0012689218
0.0012406727
0.0012098461
0.001204979
0.0012145575
0.0012326314
0.0012480821
0.0012356283
0.0011543693
0.00097179887
0.00071790819
0.0005778256
0.00060122798
0.00062583141
0.00091722177
0.0012515691
0.0014417558
0.0014113844
0.0012620598
0.0011259285
0.001097293
0.0011529706
0.0012158093
0.0012465575
0.0012512535
0.0012454902
0.001238834
0.0012224202
0.001177864
0.0010782468
0.00090348165
0.00067254336
0.0005360321
0.00048759374
0.00043392639
0.00066408174
0.00097199826
0.0012791746
0.0013941331
0.0013482523
0.0012001907
0.0010565952
0.00099615765
0.0010108019
0.0010487469
0.0010725992
0.0010721455
0.0010488234
0.00099527524
0.00089958823
0.00075437852
0.00057989607
0.00048079436
0.00044879819
0.00044484591
0.00064334671
0.00096363862
0.0011910712
0.0012957995
0.001278142
0.0011523995
0.0010076623
0.00090714738
0.00086302278
0.00084409312
0.0008196808
0.00077564302
0.00070590383
0.00060892484
0.00048714646
0.00039614602
0.00040930433
0.00045979881
0.00058826569
0.00083011944
0.0010040895
0.0011471123
0.0011748929
0.001103226
0.00097212757
0.00084670077
0.00075130643
0.000680754
0.00061697823
0.00056076735
0.00045245882
0.00041268911
0.00058428282
0.0006457378
0.00079139289
0.00092888977
0.0010263353
0.0010083567
0.00092289219
0.0008169509
0.00074889066
0.00070608093
0.00069657879
0.00059175835
0.00086083557
0.00090080854
0.00094138378
0.00096620804
0.00096832808
0.001393366
0.0013865793
0.0013881178
0.0013850243
0.0013314457
0.0012510089
0.0011264152
0.00089585111
0.00085247084
0.0013149203
0.0014937539
0.0016268658
0.0017597226
0.0018835507
0.0019841508
0.0020430722
0.0020373739
0.0019184454
0.0017070333
0.0013969141
0.0010993567
0.00073593492
0.00066215865
0.0010606815
0.0011881731
0.0013016278
0.0014276042
0.0015370582
0.0016289017
0.0017187959
0.0018230492
0.0019464878
0.0020699388
0.0021433536
0.0021254463
0.0019680351
0.0016937226
0.0013158813
0.00085121459
0.00059680009
0.00082089154
0.00090087552
0.0010088519
0.0011198329
0.0012069155
0.0012637231
0.0012968627
0.0013142483
0.0013461295
0.0014338932
0.0015985016
0.0018205118
0.0020291328
0.0021303877
0.0020571632
0.0018072319
0.0013547673
0.00089995138
0.00053386699
0.00056480114
0.00075353427
0.00094641626
0.0011550157
0.001338739
0.0014704565
0.0015434335
0.0015657837
0.0015528291
0.0015106873
0.0014560504
0.0014298231
0.0014952614
0.0016813344
0.0019250771
0.002085965
0.0020592105
0.0017778297
0.0013217843
0.00080425036
0.00046489111
0.00054279679
0.00073678474
0.0010396272
0.0013772957
0.0016593744
0.0018417782
0.0019261894
0.0019363231
0.0018989339
0.0018352076
0.0017652601
0.0016873788
0.0015961491
0.0015119388
0.0015076596
0.001651414
0.0018882077
0.0020550542
0.0019951971
0.0016732318
0.0011648349
0.00066020009
0.000406345
0.00072150882
0.0011434604
0.0015973153
0.0019435871
0.0021374136
0.0021941549
0.0021556803
0.0020669364
0.0019590399
0.0018490464
0.0017493441
0.001672782
0.0016180898
0.001564482
0.0015050246
0.0015112952
0.001663693
0.0018966032
0.0020163219
0.0018737837
0.0014686455
0.0009180406
0.00052915602
0.00044823596
0.00059878981
0.0011986581
0.0017244692
0.0021136625
0.0023075374
0.002322268
0.0022166803
0.0020595742
0.0018942373
0.0017324842
0.0015809564
0.0014548365
0.0013725944
0.0013454177
0.0013685193
0.0014014386
0.001419886
0.0014993861
0.0017024918
0.0019148549
0.001931412
0.0016633515
0.0011567776
0.00069407572
0.00044693817
0.0010342318
0.0016480427
0.0021303529
0.0023713787
0.002367286
0.0021997106
0.0019818104
0.0017792584
0.0015843419
0.0013746424
0.0011658684
0.00099658211
0.00089834681
0.00088554707
0.00095491407
0.0010877511
0.0012217686
0.001339403
0.0015220076
0.0017658433
0.0018927794
0.0017524124
0.0013262433
0.00084141932
0.00058347961
0.00063883564
0.00079685978
0.0013556448
0.0020037617
0.0023664263
0.00239684
0.0021802244
0.0019081215
0.0016961246
0.0015153035
0.0012776509
0.0009836305
0.00070452998
0.00050219889
0.00040078552
0.00040397114
0.00050155785
0.00068269419
0.00091391108
0.0011276068
0.0013450225
0.0016107691
0.0018071772
0.0017655257
0.0014224974
0.00095425605
0.00065469484
0.00070203898
0.00083186063
0.0017054456
0.0022616525
0.002427616
0.0022184223
0.0018739447
0.0016507876
0.0015196458
0.0013126215
0.00096363263
0.00058815596
0.00030231224
0.00016177163
0.00011932872
0.00012527373
0.00018453733
0.00034644098
0.00060462279
0.00088939357
0.0011659954
0.0014659168
0.0017094433
0.0017341657
0.0014575975
0.0010251579
0.0007264055
0.00073318468
0.00093721088
0.0019686865
0.0023892803
0.00233434
0.0019325436
0.0016226574
0.0015362161
0.0014204984
0.0010995225
0.0006646991
0.00029982185
0.0001182975
8.7995481e-05
8.8359115e-05
8.863551e-05
8.6332956e-05
0.00016091589
0.0003803333
0.00068382201
0.0010057593
0.0013443372
0.0016213195
0.0016822702
0.0014480662
0.0010570925
0.00079398387
0.00077871511
0.0010385136
0.0012040994
0.0021497748
0.0024220642
0.0021399129
0.001661933
0.0015116697
0.0015097423
0.001311243
0.00091067092
0.00049075888
0.00018086893
8.5761035e-05
8.5537277e-05
0.00010863062
0.00010215833
8.2584992e-05
9.305723e-05
0.00025096647
0.00054539026
0.00089048157
0.0012608359
0.0015571748
0.0016250306
0.0014038692
0.0010532466
0.00086666293
0.00086583911
0.001063598
0.0015725831
0.0022292412
0.002374172
0.0019139648
0.0014891595
0.0014996452
0.0014875242
0.0012113952
0.00083785035
0.00045064898
0.0001536222
8.8174083e-05
9.5436662e-05
0.00014613348
9.6588439e-05
8.3128073e-05
8.7332482e-05