/*--------------------------------*- C++ -*----------------------------------*\
| =========                 |                                                 |
| \\      /  F ield         | OpenFOAM: The Open Source CFD Toolbox           |
|  \\    /   O peration     | Version:  2406                                  |
|   \\  /    A nd           | Website:  www.openfoam.com                      |
|    \\/     M anipulation  |                                                 |
\*---------------------------------------------------------------------------*/
FoamFile
{
    version     2.0;
    format      ascii;
    arch        "LSB;label=32;scalar=64";
    class       volScalarField;
    location    "700";
    object      nut;
}
// * * * * * * * * * * * * * * * * * * * * * * * * * * * * * * * * * * * * * //

dimensions      [0 2 -1 0 0 0 0];

internalField   nonuniform List<scalar> 
150387
(
1.1353293e-05
1.9051842e-05
2.1272957e-05
2.2047034e-05
2.1213852e-05
1.7144936e-05
1.1167941e-05
7.195455e-06
3.8084369e-06
1.4559215e-05
1.8238559e-05
2.203711e-05
2.5345839e-05
2.8420814e-05
3.149541e-05
3.34377e-05
3.326873e-05
2.9553716e-05
2.3134419e-05
1.5529505e-05
6.4705623e-06
9.203793e-06
1.2505728e-05
1.7461308e-05
2.1485303e-05
2.4104451e-05
2.6439084e-05
2.9410711e-05
3.3188142e-05
3.7325959e-05
4.0644953e-05
4.1512132e-05
3.9037871e-05
3.2613176e-05
2.274775e-05
1.2623808e-05
5.2754766e-06
3.212274e-06
1.0042908e-05
1.6272137e-05
2.3099992e-05
2.726373e-05
2.8834465e-05
2.8769174e-05
2.8412989e-05
2.816749e-05
3.0216392e-05
3.4028734e-05
3.9022987e-05
4.3624232e-05
4.5487723e-05
4.3688647e-05
3.8152546e-05
2.8338064e-05
1.5436755e-05
6.0388954e-06
2.611032e-06
9.6362319e-06
2.0215148e-05
2.9584257e-05
3.4295273e-05
3.5556181e-05
3.4991208e-05
3.4748399e-05
3.4360964e-05
3.1170015e-05
2.8163137e-05
2.834513e-05
3.2689466e-05
3.9057438e-05
4.391379e-05
4.6210724e-05
4.5053807e-05
4.0139768e-05
3.042045e-05
1.5632676e-05
6.9111994e-06
1.0264346e-05
2.2791453e-05
3.3405059e-05
3.7800183e-05
3.7563423e-05
3.4946962e-05
3.1463243e-05
2.7952631e-05
2.6762219e-05
2.9135002e-05
3.0478019e-05
2.7410826e-05
2.7574772e-05
3.2135948e-05
3.8563782e-05
4.3466639e-05
4.5571478e-05
4.438028e-05
3.9642145e-05
2.9342733e-05
1.3503907e-05
5.707994e-06
8.930471e-06
2.1718788e-05
3.5190093e-05
4.1418782e-05
4.2058645e-05
3.9517929e-05
3.5804359e-05
3.1546644e-05
2.7303885e-05
2.3214502e-05
2.039452e-05
2.0765559e-05
2.4138252e-05
2.4199128e-05
2.5669896e-05
3.1419261e-05
3.8322703e-05
4.2425551e-05
4.4116932e-05
4.280296e-05
3.763975e-05
2.5338759e-05
1.0378997e-05
4.8476868e-06
3.4315611e-06
1.7412327e-05
3.3920486e-05
4.3495137e-05
4.6288853e-05
4.4882769e-05
4.1187524e-05
3.5951957e-05
3.0989862e-05
2.6304387e-05
2.188234e-05
1.8227436e-05
1.5416872e-05
1.5220177e-05
1.8564463e-05
2.0597179e-05
2.3767532e-05
3.1058724e-05
3.7431207e-05
4.0605747e-05
4.2169257e-05
4.0736302e-05
3.371004e-05
1.8599109e-05
9.0190215e-06
1.2422777e-05
2.8775698e-05
4.3150399e-05
4.9003444e-05
4.9561873e-05
4.6567648e-05
4.0823424e-05
3.5012238e-05
2.8619601e-05
2.2753721e-05
1.7934011e-05
1.4396279e-05
1.2550364e-05
1.1931677e-05
1.2187582e-05
1.4481125e-05
1.7666234e-05
2.3068048e-05
3.0684671e-05
3.5773209e-05
3.909978e-05
4.050682e-05
3.7703197e-05
2.6244754e-05
1.2726628e-05
9.5082339e-06
1.9202208e-05
3.8113154e-05
4.9045474e-05
5.1951425e-05
5.0156791e-05
4.5028699e-05
3.8497156e-05
3.0907346e-05
2.3893804e-05
1.8097266e-05
1.3627549e-05
1.1144558e-05
1.0187045e-05
9.6463724e-06
9.6074805e-06
1.0248117e-05
1.2464419e-05
1.6508486e-05
2.3879289e-05
3.0628395e-05
3.4925351e-05
3.8500833e-05
3.8868547e-05
3.1188388e-05
1.82778e-05
1.1701428e-05
9.5994294e-06
2.7335612e-05
4.4377915e-05
5.2081347e-05
5.1889642e-05
4.7292445e-05
4.056049e-05
3.3003935e-05
2.5947965e-05
2.0095413e-05
1.4525894e-05
1.1571192e-05
1.0193488e-05
8.1937326e-06
7.2831883e-06
8.4807817e-06
9.5646897e-06
9.9717681e-06
1.2265486e-05
1.7961624e-05
2.5576792e-05
3.1075752e-05
3.5861321e-05
3.8484316e-05
3.4287817e-05
2.3118948e-05
1.378035e-05
1.4318294e-05
3.3509722e-05
4.7611846e-05
5.1913164e-05
4.8329846e-05
4.139432e-05
3.4209844e-05
2.8403912e-05
2.3289215e-05
1.7232843e-05
1.1659403e-05
9.0998244e-06
4.6806618e-06
4.3940486e-06
5.3257863e-06
4.1288929e-06
6.3394325e-06
9.5647753e-06
1.0216107e-05
1.4046632e-05
2.1519072e-05
2.776618e-05
3.3586307e-05
3.7965537e-05
3.6344836e-05
2.5927199e-05
1.6211033e-05
8.3097357e-06
2.0039183e-05
3.7543456e-05
4.8179732e-05
4.8820106e-05
4.2304991e-05
3.4589248e-05
3.0352248e-05
2.7400374e-05
2.1237938e-05
1.2103999e-05
9.4851225e-06
5.2373307e-06
6.0032012e-06
5.1058362e-06
5.2115439e-06
8.0107373e-06
4.5212385e-06
8.3470393e-06
9.5643305e-06
1.205687e-05
1.8825256e-05
2.5353043e-05
3.2248636e-05
3.8276346e-05
3.6502017e-05
2.5848569e-05
1.894999e-05
1.2813667e-05
2.1614865e-05
3.8178062e-05
4.5771368e-05
4.3661381e-05
3.5761585e-05
3.1088101e-05
3.1065228e-05
2.7566456e-05
1.5772732e-05
9.9880501e-06
9.0420441e-06
4.2014881e-06
6.8208811e-06
2.2806804e-06
5.2112553e-06
1.088125e-05
6.0417551e-06
6.9016268e-06
9.2970261e-06
1.1252705e-05
1.7536415e-05
2.422677e-05
3.3275198e-05
3.8792219e-05
3.3643204e-05
2.4527047e-05
2.21813e-05
1.1864136e-05
2.2383263e-05
3.6222132e-05
4.1034335e-05
3.7402807e-05
3.0521441e-05
3.1700338e-05
3.4166591e-05
2.2354144e-05
1.3851052e-05
9.5565943e-06
9.2343639e-06
4.4201747e-06
6.7388449e-06
6.4413489e-06
8.2360486e-06
1.0534204e-05
5.7807354e-06
6.9156619e-06
9.1605402e-06
1.1411051e-05
1.755525e-05
2.5896883e-05
3.5027073e-05
3.5431256e-05
2.9274448e-05
2.4860391e-05
2.396422e-05
1.0860851e-05
2.0631686e-05
3.2938871e-05
3.569215e-05
3.1766834e-05
2.9452801e-05
3.5843037e-05
3.2731688e-05
1.9516093e-05
1.4993869e-05
1.040146e-05
9.690232e-06
6.6395995e-06
4.2871873e-06
7.735121e-06
8.4061826e-06
6.1857452e-06
4.6272907e-06
8.6273281e-06
9.6564471e-06
1.2719316e-05
1.9828729e-05
2.8858593e-05
3.2398028e-05
3.0084309e-05
2.7322064e-05
2.6329921e-05
2.4101224e-05
4.360311e-06
1.290606e-05
2.8811733e-05
3.110754e-05
2.7562297e-05
3.1424472e-05
3.8648084e-05
2.8445985e-05
2.2420931e-05
1.7453705e-05
1.2386884e-05
1.0400338e-05
9.3876462e-06
6.486619e-06
4.6021645e-06
4.6502601e-06
5.5262582e-06
8.1403148e-06
9.5604001e-06
1.0606734e-05
1.5497727e-05
2.2470763e-05
2.7302501e-05
2.8291009e-05
2.797472e-05
2.841997e-05
2.7918104e-05
2.060067e-05
7.3602527e-06
9.1848564e-06
2.445978e-05
2.7378242e-05
2.5352124e-05
3.5277635e-05
3.7969252e-05
2.9079422e-05
2.6321441e-05
2.1219186e-05
1.5686182e-05
1.3017033e-05
1.0804291e-05
9.0919165e-06
8.4652924e-06
8.5090097e-06
8.8157199e-06
9.0642488e-06
9.7540693e-06
1.246901e-05
1.7331593e-05
2.2328991e-05
2.6280067e-05
2.8223774e-05
2.9907161e-05
3.0585858e-05
2.727011e-05
1.7023889e-05
1.9707519e-05
2.3925864e-05
2.4702159e-05
3.7418272e-05
3.7770563e-05
3.3254866e-05
3.054949e-05
2.5916744e-05
2.0155797e-05
1.7801679e-05
1.565325e-05
1.1224196e-05
9.4407718e-06
8.6597303e-06
8.8425296e-06
9.7711152e-06
1.1973511e-05
1.5645208e-05
2.0544132e-05
2.5553924e-05
2.959809e-05
3.2335922e-05
3.3425528e-05
3.1052119e-05
2.3032387e-05
9.8531721e-06
1.5249005e-05
1.9793925e-05
2.3595093e-05
3.6965333e-05
3.882992e-05
3.7400436e-05
3.495834e-05
3.1096863e-05
2.5455728e-05
2.2178386e-05
2.3129783e-05
1.9351119e-05
1.4909664e-05
1.3831758e-05
1.3826914e-05
1.5223255e-05
1.8245153e-05
2.2752074e-05
2.7756799e-05
3.2241732e-05
3.5039324e-05
3.6299698e-05
3.4717945e-05
2.7665725e-05
1.4929767e-05
7.3999787e-06
1.4560643e-05
2.008414e-05
3.3201113e-05
3.8853781e-05
4.0401242e-05
3.9235558e-05
3.6127921e-05
3.0874006e-05
2.6475428e-05
2.7205027e-05
2.9778068e-05
2.5254832e-05
2.1961346e-05
2.2410834e-05
2.4240821e-05
2.729847e-05
3.1029045e-05
3.482076e-05
3.7652217e-05
3.8710427e-05
3.7470167e-05
3.152255e-05
1.9401438e-05
9.58654e-06
9.3330775e-06
1.3828634e-05
2.5649015e-05
3.5396546e-05
4.1006356e-05
4.2146155e-05
4.0197711e-05
3.5630288e-05
3.0454416e-05
2.8981911e-05
3.3248789e-05
3.6582862e-05
3.3173416e-05
3.1211454e-05
3.256308e-05
3.4893407e-05
3.7726886e-05
4.0020369e-05
4.0594731e-05
3.8964959e-05
3.3396182e-05
2.2049824e-05
1.0594577e-05
4.0540129e-06
8.9262592e-06
1.4791514e-05
2.7766038e-05
3.6998352e-05
4.1747707e-05
4.2003403e-05
3.8762912e-05
3.3871559e-05
3.0412378e-05
3.1457013e-05
3.723485e-05
4.1474446e-05
4.1212746e-05
4.048613e-05
4.0915713e-05
4.1549576e-05
4.1109132e-05
3.8797252e-05
3.3132801e-05
2.2339873e-05
9.6325466e-06
4.5046647e-06
7.4082331e-06
1.6250571e-05
2.7526144e-05
3.6567795e-05
4.0733735e-05
4.0230522e-05
3.6684229e-05
3.2304219e-05
2.9955107e-05
3.1856695e-05
3.6382607e-05
4.000051e-05
4.1011511e-05
4.0483193e-05
3.8919851e-05
3.5676901e-05
2.9374457e-05
1.921261e-05
9.2688488e-06
6.2618435e-06
6.0957818e-06
1.3871684e-05
2.4537144e-05
3.3463946e-05
3.7434356e-05
3.6926524e-05
3.3638448e-05
3.0220549e-05
2.9032077e-05
3.0482389e-05
3.3092679e-05
3.4532106e-05
3.3056927e-05
2.8894175e-05
2.2509815e-05
1.4411015e-05
8.1831826e-06
4.8909108e-06
3.6687277e-06
1.0933805e-05
1.9325554e-05
2.687243e-05
3.1508361e-05
3.1701162e-05
2.9967366e-05
2.7698395e-05
2.5899886e-05
2.4825173e-05
2.3450024e-05
2.0564663e-05
1.6022537e-05
1.1359385e-05
8.1831785e-06
3.963324e-06
3.7880665e-06
1.2454728e-05
1.8340163e-05
2.3554086e-05
2.6245183e-05
2.5877006e-05
2.3811837e-05
2.0722337e-05
1.6711151e-05
1.3850265e-05
1.0555732e-05
7.6691905e-06
7.6887772e-06
1.0072928e-05
1.1208167e-05
1.2115522e-05
1.2898194e-05
7.6878352e-06
9.9594623e-06
2.4772377e-05
3.8057837e-05
3.9548001e-05
4.0171365e-05
3.8615405e-05
3.2128889e-05
2.8033164e-05
1.6602407e-05
1.7723188e-05
2.8495837e-05
3.4675687e-05
4.1941772e-05
5.0603352e-05
6.0338327e-05
7.0633464e-05
7.9747697e-05
8.2856241e-05
7.8194734e-05
5.8421622e-05
4.4803507e-05
1.2378362e-05
8.0315241e-06
7.3248205e-06
2.3511427e-05
3.2052499e-05
3.9225413e-05
4.5335516e-05
5.0472724e-05
5.5607159e-05
6.2386745e-05
7.1083769e-05
8.2165121e-05
9.4613176e-05
0.00010460846
0.00010578321
9.3867544e-05
6.9682502e-05
2.8883408e-05
1.8397297e-05
9.4376217e-06
2.739282e-05
4.3801028e-05
5.9998261e-05
7.2407995e-05
8.0129974e-05
8.3415399e-05
8.2269019e-05
7.8735565e-05
7.7335947e-05
8.0369438e-05
9.0461053e-05
0.00010435476
0.00011815995
0.00012211206
0.0001139345
7.9997569e-05
4.3929588e-05
1.3921137e-05
9.776106e-06
3.4584625e-05
6.3601202e-05
8.8781139e-05
0.00010532215
0.00011360686
0.0001156578
0.00011395753
0.00011121809
0.00010753195
0.00010243733
9.5729338e-05
9.1112432e-05
9.9644872e-05
0.00011393713
0.00012713845
0.00013268912
0.00012054168
8.9161433e-05
4.4604758e-05
1.35445e-05
8.1296829e-06
3.788958e-05
7.5045285e-05
0.00010693512
0.00012618366
0.00013427138
0.00013420632
0.00012854752
0.00011929115
0.00010899455
0.0001018895
9.9374294e-05
0.00010007058
9.8951755e-05
9.8959602e-05
0.00010542553
0.00012132056
0.00013460755
0.00013708599
0.00012137783
8.4692215e-05
3.8341133e-05
1.1044096e-05
2.7120331e-05
7.2678065e-05
0.00011496936
0.00013907531
0.0001483933
0.00014799366
0.00014092211
0.00012980223
0.00011615686
0.00010107081
8.6766897e-05
7.7677087e-05
7.7632855e-05
8.348006e-05
9.1075196e-05
9.8330217e-05
0.00011028156
0.00012750565
0.00013896564
0.00013603792
0.00011372531
6.9448984e-05
3.1670515e-05
9.5297972e-06
1.6889741e-05
6.6376751e-05
0.000114037
0.00014259848
0.00015401784
0.00015374089
0.0001460057
0.00013321419
0.00011806585
0.00010088602
8.3751968e-05
6.8834926e-05
5.736492e-05
5.1578603e-05
5.5253124e-05
6.6884187e-05
8.1180362e-05
9.7001535e-05
0.0001150412
0.00013266392
0.00013906239
0.00012876705
9.4781983e-05
5.1395377e-05
1.7499825e-05
4.4393503e-05
9.6167169e-05
0.0001349018
0.00015208515
0.00015313173
0.00014506365
0.00013111633
0.0001149278
9.56141e-05
7.508298e-05
5.7481821e-05
4.4653387e-05
3.6464889e-05
3.1999838e-05
3.2270057e-05
4.0678829e-05
5.6741794e-05
7.7474586e-05
0.00010002833
0.0001216665
0.00013500849
0.00013395878
0.00011023392
6.9280183e-05
2.9603256e-05
1.254181e-05
9.3328895e-06
6.0311899e-05
0.00011642729
0.00014357919
0.00014809432
0.00013971194
0.00012664529
0.00011274258
9.3962548e-05
7.1151747e-05
4.9319341e-05
3.291582e-05
2.2997119e-05
1.7961513e-05
1.7138496e-05
1.8297908e-05
2.3267617e-05
3.5757757e-05
5.6058756e-05
8.2056331e-05
0.000108364
0.00012712755
0.00013308549
0.00011771914
8.2523197e-05
3.8148137e-05
2.141512e-05
2.140358e-05
8.3994346e-05
0.00012526248
0.00013810924
0.00013266869
0.00012021767
0.0001128899
9.8140773e-05
7.5520385e-05
4.8781337e-05
2.7455346e-05
1.4313861e-05
8.3104382e-06
6.3494403e-06
7.0227074e-06
8.8088475e-06
1.3068765e-05
2.2335769e-05
3.9298235e-05
6.4669618e-05
9.406219e-05
0.00011735872
0.00012874362
0.00011970983
9.033377e-05
4.4914646e-05
2.4206174e-05
1.4768672e-05
9.3860807e-05
0.00012366104
0.00012430864
0.00011422281
0.00010601229
0.00010648633
8.5523982e-05
5.7302125e-05
2.918855e-05
1.3452783e-05
6.1434947e-06
7.816445e-06
7.2045439e-06
7.4736143e-06
7.2514177e-06
7.5709082e-06
1.4674691e-05
2.8541522e-05
5.1286621e-05
8.1193762e-05
0.00010746801
0.00012305857
0.00011860605
9.3734654e-05
4.8664569e-05
2.8222023e-05
8.1080982e-06
3.5214583e-05
9.5304748e-05
0.0001143827
0.00010640276
9.9664363e-05
0.00010597273
0.00010075324
7.3917865e-05
4.1432594e-05
1.9676233e-05
9.2996334e-06
6.6116163e-06
7.7783678e-06
4.9535189e-06
5.3979092e-06
7.4453498e-06
6.4027685e-06
1.0647429e-05
2.2525635e-05
4.2500056e-05
7.1587655e-05
9.9359815e-05
0.00011812924
0.00011608548
9.2508498e-05
4.8697191e-05
3.190489e-05
1.7849198e-05
5.3367768e-05
8.9822038e-05
9.9794321e-05
8.988494e-05
9.2152068e-05
0.00010890784
9.6210858e-05
6.4092597e-05
3.5832834e-05
1.9307962e-05
8.5518723e-06
7.1789417e-06
7.5707281e-06
2.7587512e-06
4.8995626e-06
7.8750685e-06
6.8959708e-06
9.513191e-06
1.9941913e-05
3.7985757e-05
6.641559e-05
9.5528219e-05
0.00011531518
0.00011255646
8.6296058e-05
4.7755421e-05
3.2389523e-05
1.9965974e-05
4.0219618e-05
7.9631784e-05
8.335904e-05
7.5714653e-05
9.5092937e-05
0.00011089539
9.2882982e-05
6.290322e-05
4.0861921e-05
2.2413916e-05
9.3100326e-06
6.8547318e-06
8.7568928e-06
6.5275372e-06
9.591325e-06
8.4051474e-06
6.850204e-06
1.0431495e-05
2.0008392e-05
3.8169655e-05
6.7307989e-05
9.7288111e-05
0.00011393493
0.00010690072
7.5018719e-05
4.8425973e-05
3.6174154e-05
2.0034466e-05
4.0151735e-05
6.6921534e-05
6.9704679e-05
6.6989816e-05
0.0001013667
0.00011241508
9.2429185e-05
7.126622e-05
5.0270255e-05
2.9071029e-05
1.3151936e-05
6.2592161e-06
7.8721093e-06
8.3669602e-06
8.1831462e-06
7.3123521e-06
7.4862671e-06
1.3088717e-05
2.3868977e-05
4.472329e-05
7.5501028e-05
0.00010203728
0.00011032109
9.5093717e-05
6.5887215e-05
5.2093648e-05
4.0591423e-05
1.5327004e-05
3.329798e-05
5.4444818e-05
5.8261762e-05
6.3349377e-05
0.00010431686
0.0001132514
0.00010061071
8.3201764e-05
6.3314491e-05
4.1216691e-05
2.1545528e-05
1.0565254e-05
7.6557556e-06
7.292385e-06
6.8876607e-06
8.0846895e-06
1.191776e-05
1.9579662e-05
3.4052042e-05
5.8623261e-05
8.692703e-05
0.00010414075
0.00010229432
8.1794124e-05
6.5665808e-05
5.1949494e-05
3.3633614e-05
2.1156857e-05
4.3519096e-05
4.8256765e-05
5.9994761e-05
0.00010293403
0.00011442185
0.00010830641
9.5221726e-05
7.8432722e-05
5.9228018e-05
3.6953145e-05
2.0453722e-05
1.3528897e-05
1.2772614e-05
1.3279314e-05
1.5850979e-05
2.1689345e-05
3.2584563e-05
5.0984651e-05
7.5108592e-05
9.4787739e-05
0.00010092952
9.1560275e-05
7.7720562e-05
6.6271661e-05
4.276765e-05
2.8753016e-05
3.4594815e-05
3.970426e-05
5.3676969e-05
9.8920626e-05
0.00011675523
0.00011546645
0.00010502555
9.2205134e-05
7.8143241e-05
6.0878878e-05
4.0749066e-05
2.7377255e-05
2.3026918e-05
2.4645157e-05
2.936401e-05
3.7950617e-05
5.1714479e-05
6.9876428e-05
8.7272578e-05
9.6641925e-05
9.5246388e-05
8.7457131e-05
7.9125137e-05
6.2218889e-05
3.6590942e-05
2.1785105e-05
2.8874096e-05
3.2238057e-05
4.4912839e-05
9.0631879e-05
0.000115261
0.00012022421
0.00011124235
0.0001029498
9.4912085e-05
8.3626461e-05
7.0270067e-05
5.5874441e-05
4.6093379e-05
4.5975739e-05
5.1396014e-05
6.0897061e-05
7.3419964e-05
8.608367e-05
9.4859776e-05
9.7372394e-05
9.5794431e-05
9.1357358e-05
7.7044805e-05
5.2158803e-05
2.5945491e-05
7.8647351e-06
9.0464822e-06
2.524378e-05
3.4169271e-05
7.5697338e-05
0.00010741657
0.00012041174
0.00011618632
0.00010643632
0.00010459185
0.00010166621
9.3698312e-05
8.5848749e-05
7.8229224e-05
7.490792e-05
7.7880269e-05
8.4708701e-05
9.2511405e-05
9.8606285e-05
0.00010227526
0.00010377373
0.00010085909
8.7293629e-05
6.0425204e-05
2.3962215e-05
1.0902872e-05
2.0332037e-05
2.3406498e-05
5.5295393e-05
9.1093799e-05
0.00011318148
0.00011676396
0.00010840711
0.00010069596
0.00010458401
0.00010947052
0.00010762673
0.00010495785
0.0001010881
0.00010143415
0.0001049939
0.00010814435
0.00011005094
0.00011109636
0.00010689594
9.3748976e-05
6.8048238e-05
3.6213504e-05
2.4218645e-05
1.170683e-05
3.2327262e-05
6.5005983e-05
9.4739603e-05
0.00011001737
0.00010715944
9.9023947e-05
9.1999844e-05
9.8482006e-05
0.00010820014
0.0001134086
0.00011472455
0.0001159659
0.00011552067
0.00011518178
0.000112783
0.00010612667
9.1519458e-05
6.6900241e-05
3.6698526e-05
2.2888745e-05
9.4785327e-06
1.1956729e-05
3.4241111e-05
6.1546623e-05
9.0691097e-05
9.8313745e-05
9.4846639e-05
8.666604e-05
8.0378093e-05
8.3359215e-05
9.4754842e-05
0.00010197711
0.00010417984
0.00010313189
9.9267739e-05
9.1110914e-05
7.6718997e-05
5.5476951e-05
3.1846967e-05
2.1245584e-05
9.6594095e-06
1.133233e-05
2.4406715e-05
5.5336496e-05
7.4837519e-05
8.2451364e-05
7.9225427e-05
7.2340646e-05
6.6039434e-05
6.5320771e-05
6.9410819e-05
7.3189287e-05
7.2217546e-05
6.6420516e-05
5.5839158e-05
4.1824152e-05
2.7049678e-05
1.5794425e-05
8.9053861e-06
1.014092e-05
2.2463841e-05
3.82358e-05
4.8207199e-05
6.1286189e-05
6.1435027e-05
5.6630161e-05
4.9865504e-05
4.3524293e-05
3.8820176e-05
3.5183499e-05
3.0414243e-05
2.4732091e-05
2.0530897e-05
1.2873715e-05
1.486167e-05
1.2501285e-05
3.1995347e-05
3.9942934e-05
4.6814554e-05
4.4943982e-05
3.9856714e-05
3.4590186e-05
2.9953196e-05
2.5508187e-05
1.9516689e-05
6.4454125e-06
9.1249951e-06
1.9118249e-05
2.0610351e-05
2.0235839e-05
1.5060103e-05
1.1651486e-05
2.6371353e-05
4.0783492e-05
4.6334564e-05
4.7915937e-05
4.6264492e-05
3.9135583e-05
2.7079295e-05
1.7445616e-05
2.3763084e-05
3.9662574e-05
5.0541237e-05
6.2791285e-05
7.6424121e-05
9.0124611e-05
0.00010228915
0.00011069861
0.00011031209
0.00010021972
7.3264755e-05
5.4381681e-05
1.4208979e-05
9.2117675e-06
9.185383e-06
2.8123006e-05
3.7992171e-05
4.7630155e-05
5.7486265e-05
6.7321094e-05
7.739505e-05
8.8896877e-05
0.00010290454
0.00011861622
0.0001325038
0.00014043755
0.00013714054
0.00011994854
8.5922512e-05
3.3339711e-05
1.9489066e-05
1.0183736e-05
2.3848465e-05
3.8043002e-05
5.490985e-05
7.1207846e-05
8.4300985e-05
9.2908267e-05
9.6711011e-05
9.7415795e-05
9.9088632e-05
0.00010652403
0.00012161566
0.00014034011
0.00015597056
0.00015807395
0.00014394722
9.6007208e-05
4.9995513e-05
1.359175e-05
1.0261732e-05
3.2424788e-05
6.0536471e-05
9.1582591e-05
0.00011802344
0.00013635348
0.00014644025
0.00014967074
0.00014822868
0.00014394032
0.00013661754
0.00012581878
0.00012242877
0.00013061144
0.00014872294
0.00016523507
0.00017036866
0.00015012389
0.00010661518
4.8477846e-05
1.2693371e-05
8.4411033e-06
3.7780748e-05
7.7919185e-05
0.00011955048
0.00015114696
0.00017049764
0.00017897617
0.00017888663
0.00017257557
0.00016243581
0.00015187161
0.00014444273
0.00013845233
0.00013321293
0.00013001642
0.00013865434
0.00015671141
0.00017347187
0.00017460836
0.00015034087
9.8697052e-05
3.9720085e-05
1.0877334e-05
2.8897085e-05
7.9553993e-05
0.0001339796
0.00017128804
0.00019088164
0.0001970823
0.00019373555
0.00018372374
0.0001696818
0.00015356144
0.0001376514
0.00012503122
0.00011895343
0.00011937002
0.00012249207
0.00012891835
0.00014284649
0.00016444965
0.00017902036
0.00017251264
0.00013809693
7.7266178e-05
3.2243762e-05
1.0134822e-05
1.8755697e-05
7.6257109e-05
0.00013726196
0.00017845579
0.00019797982
0.00020189347
0.00019508587
0.00018070308
0.00016139848
0.00014075106
0.00012117301
0.00010512936
9.3320815e-05
8.6380485e-05
8.7476211e-05
9.6107229e-05
0.00010934645
0.00012656952
0.00014946275
0.00017261985
0.00017968352
0.00016078656
0.00011062394
5.4796253e-05
1.8644419e-05
5.0977385e-05
0.00011754761
0.00016943433
0.00019440284
0.00019809065
0.00018972374
0.00017214279
0.00014952784
0.00012424342
9.9136913e-05
7.8322147e-05
6.3504906e-05
5.4920794e-05
5.1588448e-05
5.3316726e-05
6.2848002e-05
7.9810996e-05
0.00010240091
0.00013033358
0.00015987516
0.00017762282
0.00017117437
0.00013277666
7.6652196e-05
2.9846211e-05
1.4024029e-05
9.4112167e-06
7.2429377e-05
0.00014587981
0.00018347202
0.00019083218
0.00018104697
0.00016536387
0.00014220883
0.00011721932
8.865253e-05
6.2350662e-05
4.2215698e-05
2.9213884e-05
2.3253138e-05
2.3427024e-05
2.7523521e-05
3.6061519e-05
5.2130242e-05
7.6166253e-05
0.00010796521
0.0001437215
0.00017026992
0.00017367398
0.00014523594
9.3382389e-05
3.9071511e-05
2.4274566e-05
2.133893e-05
0.0001042144
0.00016019836
0.00017947177
0.00017237969
0.00015764384
0.00014206359
0.00011945679
9.198991e-05
6.0260898e-05
3.42975e-05
1.7266192e-05
9.6216719e-06
8.5583018e-06
8.8750338e-06
1.1488513e-05
1.8579611e-05
3.2310357e-05
5.4699026e-05
8.7276125e-05
0.00012722029
0.00016034514
0.00017130392
0.00015060421
0.00010362113
4.6012349e-05
2.8540719e-05
1.6426137e-05
0.00012033415
0.00016120131
0.00016463684
0.0001496921
0.00013980876
0.00013141829
0.00010534178
7.2605216e-05
3.8810969e-05
1.7324953e-05
8.0174298e-06
8.7115986e-06
7.9669086e-06
8.3159148e-06
8.3618122e-06
9.8672545e-06
2.0318847e-05
4.0115199e-05
7.1523895e-05
0.00011332569
0.00015041757
0.0001662956
0.00015103119
0.00010825249
5.1474866e-05
3.3201953e-05
9.5828837e-06
4.2353991e-05
0.00012590219
0.0001533648
0.00014358709
0.00013187253
0.00013556
0.00012543833
9.5098936e-05
5.7439046e-05
2.8663368e-05
1.2027081e-05
8.5792454e-06
8.8411818e-06
5.8274665e-06
5.6953837e-06
7.5790537e-06
8.1028951e-06
1.4131731e-05
3.1769614e-05
6.1637069e-05
0.00010363397
0.00014217989
0.00016063484
0.00014803896
0.00010721642
5.3968212e-05
3.7642348e-05
1.9997716e-05
6.6120378e-05
0.00012185652
0.00013908815
0.00012234925
0.00012375398
0.00013937226
0.00012297838
8.9421555e-05
5.4906632e-05
2.7953941e-05
1.0381952e-05
8.6951853e-06
8.7155194e-06
2.993898e-06
4.7636869e-06
7.4130611e-06
8.1732951e-06
1.2399062e-05
2.8593993e-05
5.7418826e-05
9.913377e-05
0.00013720389
0.00015516998
0.00014173093
0.00010038471
5.600006e-05
4.0881091e-05
2.1676265e-05
4.7023921e-05
0.00011160581
0.00012167408
0.00010553407
0.00012477178
0.00014220673
0.00012518229
9.2493903e-05
6.0778749e-05
3.1188388e-05
1.1620735e-05
8.5287532e-06
8.8377111e-06
6.5944007e-06
8.1967347e-06
8.7590378e-06
8.4168079e-06
1.3917881e-05
2.9902693e-05
5.9127591e-05
0.00010056943
0.00013637086
0.00014997986
0.0001318331
9.0475722e-05
5.9743284e-05
4.6592985e-05
2.1380339e-05
4.539778e-05
9.6550811e-05
0.00010448582
9.4186817e-05
0.00012753608
0.00014541761
0.00013020145
0.00010245025
7.0734418e-05
3.9772702e-05
1.6915525e-05
8.5156588e-06
9.0121105e-06
9.0623379e-06
8.9489936e-06
8.4990816e-06
9.9440959e-06
1.8605322e-05
3.6549808e-05
6.838806e-05
0.00010827985
0.00013780122
0.00014258315
0.00011794196
8.418281e-05
6.6109606e-05
5.3104834e-05
1.781912e-05
3.2912933e-05
7.9625669e-05
8.7904024e-05
8.5733434e-05
0.00012720039
0.00014928827
0.00013895262
0.00011496205
8.5069393e-05
5.4735986e-05
2.8561908e-05
1.4177285e-05
1.052078e-05
9.2169441e-06
8.9667037e-06
1.0899467e-05
1.6788335e-05
2.9139841e-05
5.152082e-05
8.5116236e-05
0.00011883284
0.00013716164
0.00013032832
0.00010578755
8.6063497e-05
6.7791573e-05
4.0352999e-05
2.1735009e-05
6.3400913e-05
7.2193985e-05
7.6309373e-05
0.00012291598
0.00015159078
0.00014810715
0.00012770985
0.00010210872
7.5384445e-05
4.8350927e-05
2.7735655e-05
1.9790717e-05
1.8053913e-05
1.8465182e-05
2.272458e-05
3.2019013e-05
4.8579116e-05
7.3909185e-05
0.00010353801
0.00012557713
0.00013080852
0.00011888108
0.00010442103
8.9008923e-05
5.5325526e-05
3.2138843e-05
4.836519e-05
5.7473818e-05
6.4393e-05
0.00011444103
0.0001504575
0.00015463521
0.00013836551
0.00011866027
9.8001416e-05
7.6802104e-05
5.3189749e-05
3.8745366e-05
3.4726203e-05
3.6996578e-05
4.3635777e-05
5.5795118e-05
7.4116804e-05
9.6566968e-05
0.00011649407
0.00012625392
0.00012447274
0.00011744332
0.00010859118
8.6760304e-05
4.5865539e-05
2.2693217e-05
3.7156802e-05
4.414938e-05
5.0453177e-05
9.9461863e-05
0.00014365157
0.00015717842
0.00014688589
0.00013096253
0.00011802037
0.00010384274
8.8907715e-05
7.2926364e-05
6.4453559e-05
6.5648794e-05
7.2550991e-05
8.4205989e-05
9.894007e-05
0.00011333024
0.00012343996
0.0001279478
0.00012841707
0.00012446404
0.00010845119
6.9008657e-05
3.1952802e-05
8.7525395e-06
1.1951006e-05
3.2525117e-05
3.5927518e-05
7.8606323e-05
0.00012923435
0.00015435475
0.00015233804
0.00013918203
0.00013089264
0.00012573614
0.00011666542
0.00010956183
0.00010226964
0.00010055967
0.00010421975
0.00011141532
0.00011965314
0.0001278145
0.00013406883
0.00013760053
0.00013381859
0.00011673589
7.6852728e-05
2.9542245e-05
1.2812049e-05
2.4673296e-05
2.3434014e-05
5.3875562e-05
0.00010528921
0.00014224777
0.00015246341
0.00014237049
0.00013208093
0.0001313267
0.00013601249
0.0001351939
0.00013273589
0.00013246083
0.00013200576
0.00013550015
0.00013924067
0.00014251065
0.00014317903
0.00013804032
0.00012133602
8.7574936e-05
4.3068579e-05
2.7834481e-05
1.3661632e-05
3.0098671e-05
7.2065019e-05
0.00011574845
0.00014329974
0.00014196669
0.00013055701
0.00012219813
0.00012466533
0.00013471998
0.0001409709
0.00014381362
0.00014487644
0.00014528309
0.00014434768
0.00014069079
0.00013172054
0.00011346391
8.224983e-05
4.2557287e-05
2.5210993e-05
1.025974e-05
1.2541772e-05
3.696444e-05
7.2604468e-05
0.00011637549
0.00013126433
0.00012831
0.00011537614
0.00010681491
0.00010761132
0.00011470311
0.00012241203
0.00012548124
0.00012327406
0.00011777992
0.00010740262
9.0103954e-05
6.4563133e-05
3.5386237e-05
2.2684367e-05
1.0245286e-05
1.1622047e-05
2.7812199e-05
6.8691046e-05
9.8420082e-05
0.00011092373
0.00010924659
9.8386229e-05
8.7391209e-05
8.1394851e-05
8.0267444e-05
8.0049747e-05
7.7400824e-05
7.1155429e-05
6.0688734e-05
4.6310793e-05
2.9199645e-05
1.6282742e-05
9.4171477e-06
1.0666873e-05
2.6155878e-05
4.6611668e-05
6.1474204e-05
8.1886959e-05
8.5462519e-05
7.9728117e-05
6.8689279e-05
5.8352295e-05
4.9987516e-05
4.252569e-05
3.5536281e-05
2.8462781e-05
2.3109272e-05
1.3824408e-05
1.6071702e-05
1.384976e-05
3.7154999e-05
4.9985309e-05
6.1803064e-05
6.0179923e-05
5.2951055e-05
4.3971885e-05
3.6288179e-05
3.1023305e-05
2.336082e-05
8.2869924e-06
9.8271758e-06
2.0174672e-05
2.181465e-05
2.181094e-05
1.8328304e-05
1.2654653e-05
2.8142859e-05
4.4759447e-05
5.3793448e-05
5.6075042e-05
5.4047224e-05
4.4542487e-05
2.8004853e-05
1.8019636e-05
2.8309399e-05
5.5895715e-05
7.3165446e-05
9.0499363e-05
0.0001079711
0.00012339485
0.00013525127
0.0001416755
0.00013720128
0.00012154789
8.6487019e-05
6.1441757e-05
1.5771208e-05
9.5075019e-06
1.1950574e-05
3.9006749e-05
5.4156977e-05
6.9047977e-05
8.354548e-05
9.7436392e-05
0.00011117477
0.0001255626
0.0001412202
0.0001570324
0.00016925188
0.0001741098
0.00016567859
0.00014165505
9.7779037e-05
3.6434575e-05
1.9774965e-05
1.3572317e-05
2.6442517e-05
4.0320167e-05
5.7146953e-05
7.4616367e-05
9.0455774e-05
0.00010309405
0.00011163234
0.00011760254
0.00012513374
0.00013805203
0.00015694636
0.00017707452
0.00019150831
0.00018972225
0.00016757478
0.00010779905
5.3124649e-05
1.3484134e-05
1.1311714e-05
2.7480888e-05
4.9338225e-05
7.9241305e-05
0.00011167723
0.00013929657
0.00015808741
0.0001678467
0.00017037875
0.0001676444
0.00016091993
0.00015327249
0.00015212648
0.00016307817
0.00018347806
0.00020022812
0.00020177514
0.00017178572
0.00011588528
4.8358673e-05
1.2337785e-05
8.6325678e-06
3.3527986e-05
6.7066836e-05
0.00011236561
0.00015545803
0.00018642886
0.00020351475
0.00020910861
0.0002064448
0.00019859241
0.0001887095
0.00017940965
0.00017071229
0.00016325172
0.0001608676
0.00017046748
0.00019044566
0.00020753822
0.00020354751
0.0001676983
0.00010266555
3.7899488e-05
1.1175046e-05
2.7392261e-05
7.4991147e-05
0.00013631425
0.0001863257
0.00021632537
0.00022861987
0.00022811877
0.00021901854
0.00020481153
0.00018891175
0.00017405028
0.00016230351
0.00015487873
0.00015194087
0.00015223236
0.00015829209
0.00017470247
0.00019783742
0.00021129958
0.00019689254
0.00014873586
7.5387469e-05
3.1022136e-05
1.0474049e-05
1.9166322e-05
7.9432847e-05
0.00014999926
0.00020231149
0.00022963858
0.00023695681
0.00023039788
0.00021420544
0.00019176341
0.00016736541
0.0001459496
0.00013002137
0.00012032116
0.00011612504
0.00011779713
0.00012479062
0.00013606785
0.00015422809
0.00018065951
0.00020512924
0.00020824282
0.0001779478
0.0001120795
5.2658989e-05
1.9115099e-05
5.5099313e-05
0.00013258026
0.00019558758
0.00022794436
0.00023453242
0.00022478783
0.00020440616
0.00017602544
0.0001444975
0.00011523706
9.2060172e-05
7.6356416e-05
6.8532995e-05
6.8308191e-05
7.416258e-05
8.6188444e-05
0.00010361218
0.00012645441
0.00015777783
0.00019108187
0.00020794545
0.00019312445
0.00013902512
7.3367022e-05
3.0496024e-05
1.6573848e-05
9.5933039e-06
8.2546456e-05
0.00017047869
0.00021734729
0.00022805196
0.00021693083
0.00019687081
0.00016864202
0.00013548262
0.0001014589
7.1635748e-05
4.9119179e-05
3.4606736e-05
2.8159235e-05
2.9311062e-05
3.7115162e-05
5.0600861e-05
7.0432339e-05
9.6432113e-05
0.00013153929
0.00017255022
0.00020079169
0.00019860336
0.00015600439
9.0333773e-05
3.9585897e-05
2.8948173e-05
2.1889655e-05
0.00012305138
0.00019168278
0.0002167767
0.00020936497
0.00019048301
0.00016981333
0.00014104855
0.00010630906
7.0185074e-05
4.0787786e-05
2.1444616e-05
1.3017423e-05
1.142064e-05
1.1634526e-05
1.5177316e-05
2.5867568e-05
4.4489649e-05
7.074455e-05
0.00010723614
0.00015338336
0.00019049746
0.00019797332
0.0001648228
0.00010201351
4.822383e-05
3.35709e-05
1.8068453e-05
0.00014547352
0.00019647489
0.00020325043
0.00018459845
0.00017046071
0.00015445489
0.00012502936
8.5976097e-05
4.8588685e-05