/*--------------------------------*- C++ -*----------------------------------*\
| =========                 |                                                 |
| \\      /  F ield         | OpenFOAM: The Open Source CFD Toolbox           |
|  \\    /   O peration     | Version:  2406                                  |
|   \\  /    A nd           | Website:  www.openfoam.com                      |
|    \\/     M anipulation  |                                                 |
\*---------------------------------------------------------------------------*/
FoamFile
{
    version     2.0;
    format      ascii;
    arch        "LSB;label=32;scalar=64";
    class       volScalarField;
    location    "700";
    object      p;
}
// * * * * * * * * * * * * * * * * * * * * * * * * * * * * * * * * * * * * * //

dimensions      [0 2 -2 0 0 0 0];

internalField   nonuniform List<scalar> 
150387
(
0.0035842094
0.0043553466
0.003027807
0.0025959134
0.0023870763
0.0023403289
0.003597405
0.003669416
0.004764594
0.0036622817
0.0022215716
0.00057294366
-0.00062977892
-0.0015348759
-0.0019393942
-0.0019217258
-0.0015121899
-0.0005757134
0.00052643372
0.0013788435
0.0021703618
0.0041534399
0.0019368883
-0.00074222348
-0.003113694
-0.0051446722
-0.0065508274
-0.0073333267
-0.007487881
-0.0071226367
-0.0063110754
-0.0050949262
-0.0036564433
-0.0020378532
-0.0005028939
0.001223513
0.0030400782
0.0039649685
0.0030903156
0.00050270879
-0.0026845313
-0.0057942929
-0.0086571814
-0.011072677
-0.012722506
-0.013629252
-0.013799097
-0.013291416
-0.012196088
-0.010599276
-0.0086613648
-0.0064835814
-0.004235146
-0.0019610482
-5.5609261e-05
0.0016262095
0.0048824752
0.0035078362
0.00042027385
-0.0030771725
-0.0067167117
-0.010139411
-0.013264358
-0.016030631
-0.018196157
-0.019592696
-0.020126098
-0.019767897
-0.018576174
-0.016685718
-0.014304026
-0.011594896
-0.0087735424
-0.0059373202
-0.0032555824
-0.00089445467
0.0010669778
0.0037573198
0.00091042671
-0.0027999164
-0.0067204558
-0.010613871
-0.014312718
-0.017690011
-0.020733275
-0.023414303
-0.025454336
-0.026589247
-0.026592774
-0.025476906
-0.023386138
-0.020566629
-0.017283193
-0.013811362
-0.010323684
-0.0070161828
-0.0038595007
-0.0012025844
0.0014115255
0.0046299233
0.0018479779
-0.0018445347
-0.0060098859
-0.01032486
-0.014633099
-0.018774693
-0.022627317
-0.026042424
-0.028904038
-0.031305967
-0.032963333
-0.033522173
-0.032699196
-0.0305184
-0.027284271
-0.023384461
-0.019209055
-0.015013837
-0.011026996
-0.0072639346
-0.0038433336
-0.00058083861
0.0010682963
0.0060378765
0.0029458169
-0.00047501129
-0.0046941206
-0.0093054488
-0.014116332
-0.018984911
-0.023772316
-0.0283355
-0.032493505
-0.035995132
-0.038576231
-0.040344359
-0.04099207
-0.040301038
-0.038057277
-0.034398386
-0.02979976
-0.024813094
-0.019832142
-0.01512695
-0.010750218
-0.0067770057
-0.0030812529
-0.00033234855
0.0039730667
0.001129693
-0.0028689524
-0.0075467496
-0.012655852
-0.018031079
-0.023572733
-0.02916161
-0.034638407
-0.039814661
-0.044423633
-0.048026882
-0.050036644
-0.050405451
-0.049079374
-0.046227577
-0.041860782
-0.036396768
-0.030471494
-0.024602998
-0.01912232
-0.01410787
-0.0095842715
-0.0053717338
-0.001666521
0.00134324
0.0026948093
-0.0007860232
-0.0052598118
-0.010364708
-0.015973156
-0.021934139
-0.028198996
-0.03465512
-0.041140225
-0.047599193
-0.053863659
-0.059141084
-0.062456306
-0.062937499
-0.060444275
-0.055959329
-0.049981365
-0.043103615
-0.035971419
-0.029101907
-0.022817996
-0.017178203
-0.012116986
-0.0074786966
-0.0030968164
0.00047105339
0.0047685919
0.0014239226
-0.0025284665
-0.0074653903
-0.012990718
-0.019077394
-0.025598878
-0.032539643
-0.039767136
-0.04721397
-0.055207094
-0.063545154
-0.070277012
-0.074187197
-0.075378853
-0.073275734
-0.067337164
-0.059007498
-0.049905898
-0.041102135
-0.033084165
-0.025999631
-0.019786573
-0.014280523
-0.0092719692
-0.0045026559
-0.00079240312
0.0034366248
0.00012489096
-0.0041062384
-0.0094247875
-0.015314816
-0.021799454
-0.028759797
-0.036171636
-0.043882344
-0.052145107
-0.061933506
-0.072061457
-0.078343691
-0.080979853
-0.081563382
-0.080828662
-0.076048654
-0.06715026
-0.056107641
-0.045430404
-0.036206575
-0.028403745
-0.021809599
-0.015986875
-0.010618306
-0.0054776709
-0.001385369
0.001353824
0.0028915023
-0.00080338055
-0.0053708049
-0.011013915
-0.017186384
-0.02393057
-0.031105079
-0.038624372
-0.046421491
-0.055407478
-0.066970992
-0.077209275
-0.081581759
-0.082979355
-0.082873152
-0.082657687
-0.079632673
-0.071985829
-0.060362682
-0.048257713
-0.038105428
-0.030006004
-0.023268268
-0.017239767
-0.011543515
-0.0061703044
-0.0018151857
0.0017071489
0.002595703
-0.0011068544
-0.0061925342
-0.012112991
-0.018457283
-0.025260151
-0.032353644
-0.039558618
-0.047189824
-0.056921342
-0.06941509
-0.078462984
-0.082597981
-0.083589898
-0.082292992
-0.082528462
-0.080323032
-0.073587802
-0.061787814
-0.048986749
-0.038867831
-0.030882087
-0.024090606
-0.017834772
-0.011877246
-0.0062853122
-0.0017646432
0.0012753116
0.0027289767
-0.0011741663
-0.0064793511
-0.012656227
-0.018992223
-0.025635568
-0.032298186
-0.038866822
-0.046354445
-0.056461499
-0.068341738
-0.076952821
-0.081226156
-0.083501048
-0.082032445
-0.081872335
-0.07963024
-0.072620889
-0.06026562
-0.048079098
-0.038587578
-0.030927904
-0.024090284
-0.017648088
-0.011549504
-0.0061061696
-0.001439666
0.0014486077
0.0036822949
-0.00063296831
-0.0062065442
-0.012547335
-0.018709217
-0.024980008
-0.030939521
-0.036899575
-0.044270802
-0.053914023
-0.064594378
-0.07361483
-0.078582308
-0.080297221
-0.080497822
-0.079779568
-0.076746538
-0.068769155
-0.056739923
-0.045911233
-0.037350052
-0.030011797
-0.023135816
-0.016650368
-0.01059182
-0.005336417
-0.0010377917
0.0016077986
0.0048381843
0.00024233382
-0.0053417172
-0.011745329
-0.017592255
-0.023314648
-0.028499044
-0.03409453
-0.041227277
-0.049475357
-0.058399719
-0.066959333
-0.073223833
-0.076027461
-0.076265958
-0.074749197
-0.070378058
-0.061951213
-0.051667188
-0.042691834
-0.035058175
-0.028001273
-0.021253789
-0.014945552
-0.0091414501
-0.0041946664
-0.00080777129
0.0015010856
0.0054166201
0.0016111112
-0.0038582059
-0.010165777
-0.015651547
-0.02074775
-0.025360997
-0.030775394
-0.037159772
-0.044023011
-0.050918734
-0.057447856
-0.062957118
-0.066439922
-0.067449455
-0.065570666
-0.060858418
-0.053672845
-0.045801787
-0.038524235
-0.03167542
-0.025020848
-0.018656474
-0.012728831
-0.0073563897
-0.0028314348
0.00014845332
0.0032062476
-0.0017520135
-0.0077758867
-0.012904244
-0.017497928
-0.021824937
-0.026831499
-0.032429833
-0.038221482
-0.043671353
-0.048318103
-0.051929946
-0.05431707
-0.055161855
-0.054058522
-0.050572502
-0.045415505
-0.039559265
-0.033545932
-0.027442038
-0.021399671
-0.015585408
-0.010166147
-0.0053494423
-0.0013360683
0.0010785775
0.0048375972
0.00078844049
-0.0048085192
-0.0095848853
-0.013831219
-0.017911094
-0.022396124
-0.027274425
-0.032237206
-0.036815291
-0.040521659
-0.043057815
-0.044422112
-0.044651696
-0.04367403
-0.041371672
-0.037725564
-0.033192744
-0.02814225
-0.022830021
-0.017490565
-0.012306054
-0.0074807922
-0.0034089665
-0.00010730512
0.002370784
0.0035905587
-0.0015000572
-0.0058832371
-0.0098971752
-0.013663626
-0.017666537
-0.021889074
-0.026143719
-0.030085593
-0.033313158
-0.035484054
-0.036484246
-0.036410148
-0.035377447
-0.03348458
-0.030669964
-0.026998599
-0.022750596
-0.018186255
-0.013531813
-0.0090011324
-0.0048293336
-0.0012464795
0.00096238455
0.004982448
0.0013912055
-0.0021361947
-0.00581439
-0.0092796812
-0.012825236
-0.016477771
-0.02011761
-0.023501497
-0.026359701
-0.028388372
-0.029394953
-0.0293511
-0.028385297
-0.026658907
-0.024285018
-0.021240211
-0.017654502
-0.013746826
-0.0097360722
-0.0058442726
-0.0025345446
0.00029061912
0.00094662356
0.003984865
0.0011295815
-0.0018660623
-0.0049593447
-0.008057136
-0.01119453
-0.014309504
-0.017209125
-0.019702378
-0.021565653
-0.022628446
-0.022785304
-0.022051079
-0.020573545
-0.018529444
-0.015942399
-0.012896563
-0.0095221231
-0.006113056
-0.0030472166
-0.00032856964
0.0019901292
0.003430099
0.0011862781
-0.0010510339
-0.0036125372
-0.0062458068
-0.0088875899
-0.011352115
-0.013515159
-0.015189814
-0.016242542
-0.016556857
-0.016083886
-0.014899199
-0.013188894
-0.011032921
-0.0084720884
-0.0056194448
-0.0030175563
-0.00052343014
0.0011571424
0.0033737877
0.0021849757
4.3283512e-05
-0.0019249509
-0.0040473808
-0.0060334725
-0.0078323983
-0.0092585904
-0.010208763
-0.010588227
-0.010328069
-0.0094952028
-0.0081857969
-0.0064538325
-0.0043756995
-0.0019528531
-0.00016284688
0.0019474625
0.0037106032
0.0026620297
0.0014625752
-0.00017393313
-0.0017274349
-0.0031277164
-0.00419609
-0.0049115459
-0.0051940655
-0.0049380645
-0.0043613961
-0.0033585389
-0.0021100543
-0.00082760244
0.00060141694
0.00024063486
0.0036807651
0.0022576126
0.0011237725
0.00046030343
-0.00012303122
-0.00059953098
-0.00079390303
-0.00063730506
-0.00033855029
0.00051232383
0.0010205421
0.0018997223
0.0030009511
0.0025931567
0.0023954323
0.0023338603
0.0031926846
0.0020758388
0.0042585211
0.004602582
0.0044525798
0.0024855807
0.0020773305
0.0018949809
0.0018997654
0.0035525577
0.0038506219
0.0048483821
0.0017814742
0.00051891969
-0.001036871
-0.0021144519
-0.0030947342
-0.0033074533
-0.0030825923
-0.0024677237
-0.0012409743
-1.0505706e-05
0.00098601201
0.0023295021
0.0042433073
0.0040188925
0.0035775892
5.0843125e-05
-0.0025784294
-0.0048460387
-0.0067168426
-0.0079507157
-0.0086086519
-0.0086316092
-0.0081221699
-0.0071757668
-0.0058122805
-0.0043248618
-0.0024814741
-0.0011755785
0.0011671537
0.0032065447
0.0043767025
0.0018045629
-0.00088692884
-0.0044163394
-0.0074577276
-0.010103831
-0.012297824
-0.013866519
-0.01473257
-0.014841186
-0.014256322
-0.013088924
-0.011388177
-0.0093613212
-0.0070471895
-0.0046322705
-0.0022041275
-0.00054882964
0.001890694
0.004765301
0.0023274015
-0.00060214482
-0.004518764
-0.0082667381
-0.011661825
-0.014696506
-0.017328034
-0.019402931
-0.020721986
-0.021168159
-0.020671158
-0.01934769
-0.017347024
-0.014904744
-0.012119333
-0.0092465179
-0.006305972
-0.0033307707
-0.0010880384
0.0015380786
0.005170795
0.0024685463
-6.6256508e-05
-0.0043433574
-0.008386026
-0.012350761
-0.016033898
-0.019375636
-0.022340467
-0.024888285
-0.026785087
-0.027786885
-0.027629895
-0.026340331
-0.024065891
-0.021106168
-0.017715552
-0.01419096
-0.010619511
-0.0072849531
-0.0037992553
-0.0014760515
0.0013834
0.0044676418
0.00096404024
-0.0032346061
-0.0076100281
-0.012077
-0.01646956
-0.020661711
-0.02456796
-0.028075403
-0.031020576
-0.033267165
-0.034652141
-0.034844569
-0.033713916
-0.031273882
-0.02781303
-0.023739442
-0.019479638
-0.015217374
-0.011229209
-0.0073493702
-0.003887482
-0.00025065594
-7.7852157e-05
0.0058600561
0.001551813
-0.0017798211
-0.0063427342
-0.011126104
-0.016049981
-0.021003262
-0.025888739
-0.030594941
-0.034981687
-0.038739198
-0.041480896
-0.042942849
-0.043059422
-0.041769131
-0.039022588
-0.034982391
-0.030107579
-0.024975402
-0.019912385
-0.015232495
-0.010802283
-0.0069286219
-0.0030252523
-0.00069370405
0.0032343249
7.8305058e-05
-0.004367476
-0.0092523747
-0.014520465
-0.020006617
-0.025663893
-0.031420214
-0.037171231
-0.042794183
-0.047843313
-0.05162762
-0.053482828
-0.05327244
-0.051150381
-0.047572125
-0.042611252
-0.036708864
-0.030531894
-0.0245393
-0.019086531
-0.014053897
-0.0096449886
-0.005226294
-0.0017987134
0.00093886351
0.0056358684
0.0018337044
-0.0020890389
-0.0069118686
-0.012131703
-0.017855949
-0.023923188
-0.0303295
-0.037028341
-0.043957624
-0.051103818
-0.057845528
-0.062977363
-0.065797604
-0.065548174
-0.062424034
-0.057311513
-0.050800032
-0.04344378
-0.035971333
-0.028918263
-0.022635376
-0.017010053
-0.012055425
-0.0072835817
-0.0028438234
0.00072013955
0.0044088902
0.00029145368
-0.0038667693
-0.0091329141
-0.014693425
-0.020872521
-0.027508692
-0.03461155
-0.042165792
-0.050243094
-0.059019821
-0.067326664
-0.073122667
-0.0761233
-0.076316706
-0.073715016
-0.06753329
-0.059259045
-0.05005877
-0.041026811
-0.03281899
-0.025707713
-0.019535541
-0.014129191
-0.0090773511
-0.0041273217
-0.0011282319
0.0029758714
-0.001192953
-0.0055139804
-0.011072601
-0.016915516
-0.02347133
-0.030532876
-0.03809662
-0.046244237
-0.05533563
-0.065678829
-0.074899996
-0.079856484
-0.081724832
-0.081689241
-0.080448888
-0.075053948
-0.066279819
-0.055608168
-0.04510877
-0.035859534
-0.028086176
-0.021508434
-0.015743796
-0.010376501
-0.0050409601
-0.0017226514
0.0012352656
0.0025090706
-0.0023940782
-0.0068298844
-0.012561757
-0.018631476
-0.025417501
-0.032640294
-0.040312735
-0.048767252
-0.058737962
-0.070294972
-0.078470708
-0.081409968
-0.082928896
-0.08291105
-0.082556141
-0.078333107
-0.070383856
-0.059146578
-0.047621582
-0.037734783
-0.029651137
-0.022835597
-0.016817957
-0.011149163
-0.005891104
-0.0021919001
0.0018368191
0.0010160125
-0.0023189674
-0.0077053725
-0.013508591
-0.019720947
-0.026520041
-0.033578234
-0.041065153
-0.049731676
-0.060358385
-0.071649584
-0.079009849
-0.083024208
-0.084211126
-0.082933356
-0.082386592
-0.078989075
-0.071534791
-0.059943212
-0.048190369
-0.038348798
-0.030295452
-0.023397941
-0.017150812
-0.011329492
-0.0056392708
-0.0018197233
0.0013359467
0.0022149963
-0.0027012267
-0.007898208
-0.013888233
-0.020056737
-0.026614441
-0.033179454
-0.040273892
-0.048841019
-0.05941652
-0.069793153
-0.07709492
-0.081524652
-0.084055015
-0.082294449
-0.081480063
-0.077946174
-0.069934911
-0.058094278
-0.04698317
-0.037751629
-0.030012487
-0.023097358
-0.016741185
-0.010735916
-0.0057394048
-0.0017273299
0.0016564641
0.0030311292
-0.0018950297
-0.0075695497
-0.013550386
-0.019549084
-0.025647751
-0.031576486
-0.038262984
-0.046480894
-0.056052069
-0.065758763
-0.073766726
-0.07836085
-0.079962486
-0.079788185
-0.078480112
-0.073989316
-0.065291427
-0.054419499
-0.044592471
-0.036173437
-0.028766078
-0.021889435
-0.015557202
-0.0095615326
-0.0046981573
-0.0013523346
0.0022142006
0.0041454071
-0.0010017658
-0.0066337742
-0.012529171
-0.018187174
-0.023710079
-0.029009624
-0.035278774
-0.042718794
-0.050944919
-0.059264084
-0.066721437
-0.072253991
-0.074750353
-0.074503662
-0.072231724
-0.06696235
-0.058717254
-0.049548987
-0.041155396
-0.033548452
-0.026505911
-0.019833168
-0.013724188
-0.0080211193
-0.0033121674
-0.0008118956
0.0050880428
0.00042611686
-0.0050771621
-0.010778773
-0.016037274
-0.020966974
-0.025812491
-0.031552686
-0.038021885
-0.044863612
-0.051503998
-0.057440083
-0.062159255
-0.06508515
-0.065314999
-0.062880823
-0.057982566
-0.051236003
-0.043896597
-0.036798314
-0.029965262
-0.023403049
-0.017156982
-0.011468394
-0.0063075656
-0.0019331368
-0.00017931435
0.001608065
-0.0030474851
-0.0084324565
-0.013221682
-0.017706585
-0.022164068
-0.027275418
-0.032843887
-0.038560296
-0.043872277
-0.048356255
-0.05174337
-0.053899672
-0.054202613
-0.05245198
-0.048704128
-0.043572516
-0.037748388
-0.031736633
-0.025680842
-0.019746397
-0.014103127
-0.008919969
-0.0042972077
-0.00078392476
0.0013583205
0.0046758653
-0.00061356891
-0.0055476075
-0.0098829473
-0.014047941
-0.018120195
-0.022640012
-0.027416339
-0.032246549
-0.036653802
-0.040237179
-0.042720338
-0.044089189
-0.044198506
-0.042852359
-0.040079953
-0.036157991
-0.0314792
-0.026411085
-0.021154804
-0.015931089
-0.01095567
-0.0062698641
-0.0028158524
-0.00027853058
0.0022723389
0.0048818838
0.0027989049
-0.0020800854
-0.0061089017
-0.010077239
-0.013784199
-0.017786556
-0.021881967
-0.025990453
-0.029731603
-0.032774424
-0.034823754
-0.035795271
-0.035715066
-0.034565917
-0.0323581
-0.029244383
-0.025428086
-0.021163075
-0.016642211
-0.012115414
-0.0077956385
-0.003712155
-0.00039774741
0.00084283818
0.0039932745
0.00058960577
-0.0021028258
-0.0060033661
-0.0093241124
-0.01287446
-0.016393893
-0.019905824
-0.023114496
-0.025796863
-0.027657017
-0.028560998
-0.028480008
-0.027486653
-0.025644296
-0.023077772
-0.019916816
-0.016312995
-0.012445486
-0.0085645693
-0.0045970119
-0.0019966102
0.00052325275
0.0042393491
0.00078573954
-0.001719655
-0.0049697784
-0.0080815791
-0.011074992
-0.014071627
-0.016792998
-0.01915245
-0.020882021
-0.021828864
-0.021910132
-0.021144075
-0.019617977
-0.017459872
-0.014782735
-0.011710864
-0.0083404275
-0.0048575658
-0.0022576413
-0.00026755014
0.0016123384
0.0038513092
0.00078768695
-0.00081186538
-0.00351338
-0.0061456994
-0.0087510199
-0.011082154
-0.013141457
-0.014692353
-0.015652391
-0.015896765
-0.015375932
-0.014168482
-0.012389657
-0.010203629
-0.0076615442
-0.0047118933
-0.0024676906
-0.0004508973
0.00090366007
0.003699697
0.0025579582
-0.00028374752
-0.0017070329
-0.0038716915
-0.0056980342
-0.0074535876
-0.0088055782
-0.0097289188
-0.010102388
-0.0098016289
-0.008906883
-0.0074276768
-0.0056281421
-0.0035790649
-0.00066715982
2.8776406e-05
0.0011189697
0.003593881
0.0027892264
0.0013564481
1.9127798e-05
-0.0015105638
-0.003051495
-0.0040673892
-0.0047151482
-0.0049247208
-0.0044149052
-0.0037828246
-0.0027094548
-0.0018666745
-0.00095909343
0.0017699294
0.0038222268
0.0021133009
0.0011790221
0.0004464974
-0.00015864787
-0.00062695602
-0.0008172197
-0.00075669882
-0.00023776016
0.00031774704
0.0015446692
0.00036688081
0.0030812177
0.0028089137
0.002295527
0.0025144748
0.00258821
0.0036239306
0.0038792195
0.0039804686
0.0017727652
0.0014688595
0.0013534129
0.0014184771
0.0032240371
0.0035160887
0.0040052089
0.0010334521
-4.9410331e-05
-0.0014929207
-0.0025659021
-0.0036003788
-0.0037765098
-0.003496589
-0.0028159625
-0.0015135442
-0.00024766056
0.0007651084
0.002337978
0.0041028668
0.0037500446
0.0031935735
-0.00040955332
-0.002955607
-0.0051501511
-0.0070061753
-0.0082358938
-0.0088578406
-0.0088289804
-0.0082906361
-0.0073291428
-0.0059541517
-0.0044807625
-0.0026213789
-0.0013998403
0.0011435246
0.0031525748
0.0041137891
0.0013847366
-0.0011846638
-0.0047801661
-0.0077838271
-0.010341569
-0.01244058
-0.013929587
-0.01475397
-0.014841306
-0.014249744
-0.013096412
-0.0114291
-0.0094436134
-0.0071457753
-0.0047209556
-0.0022249678
-0.00072227473
0.001983669
0.0045051989
0.0021524202
-0.00069818231
-0.0047808307
-0.0086362544
-0.012027817
-0.014996959
-0.017507241
-0.019446043
-0.02065586
-0.021038499
-0.020543123
-0.019267303
-0.017322371
-0.014936898
-0.012199537
-0.0093530109
-0.0063677058
-0.0033007309
-0.0011541453
0.0015746196
0.0046422179
0.0022511473
-7.6456042e-05
-0.0046121481
-0.0087932963
-0.012820693
-0.016520118
-0.019848854
-0.022763553
-0.025154802
-0.026877075
-0.027673694
-0.027408205
-0.02612747
-0.023931335
-0.021084195
-0.017784036
-0.014315076
-0.010732309
-0.0073594539
-0.0037585129
-0.0016084648
0.0014399814
0.0047255212
0.00098277645
-0.0034205915
-0.0079569
-0.012512829
-0.016957661
-0.021179333
-0.025110727
-0.028653343
-0.031608473
-0.033733759
-0.034871114
-0.03478898
-0.033503574
-0.031060795
-0.027710867
-0.023765808
-0.019605677
-0.015375415
-0.011380654
-0.0073963433
-0.0039643218
-0.00023309646
-0.00074558926
0.0058548343
0.0013530172
-0.0019053047
-0.0066245067
-0.011509203
-0.016480039
-0.021457607
-0.026361544
-0.031107497
-0.035572943
-0.039409591
-0.042182868
-0.043500164
-0.043343177
-0.041777335
-0.038878511
-0.034858017
-0.03010148
-0.025093856
-0.02009676
-0.015437775
-0.01093721
-0.007060369
-0.0030906963
-0.00096468898
0.0031912135
3.1282715e-06
-0.0045465059
-0.0095349723
-0.014859921
-0.020357169
-0.026011396
-0.031773815
-0.037576788
-0.043311344
-0.048430189
-0.052191601
-0.053985759
-0.053614492
-0.05137037
-0.047618386
-0.042578771
-0.036732275
-0.030669124
-0.024750912
-0.019324546
-0.014230693
-0.0098044079
-0.005295289
-0.0019826283
0.0007535563
0.005322121
0.0016778902
-0.0022329559
-0.0071239171
-0.012385785
-0.018121008
-0.02416077
-0.030536487
-0.037235023
-0.04424877
-0.051518214
-0.058168196
-0.063029982
-0.065601445
-0.065249722
-0.062364964
-0.057413746
-0.050916515
-0.043579793
-0.036180361
-0.029180735
-0.022904965
-0.017203517
-0.012202583
-0.0073261226
-0.0029348588
0.00059691808
0.0043192457
4.1653471e-05
-0.0040364233
-0.0093283702
-0.014885138
-0.021038185
-0.027611254
-0.034673373
-0.042265687
-0.050492592
-0.059299344
-0.067170524
-0.072534919
-0.075334339
-0.075382765
-0.07276232
-0.067111984
-0.0592738
-0.05027643
-0.041338672
-0.033156312
-0.026015926
-0.019743299
-0.0142564
-0.009133538
-0.0041813976
-0.0014985723
0.0026713353
-0.0015581608
-0.0057409367
-0.011255762
-0.017059478
-0.023541458
-0.030510945
-0.038072561
-0.046364547
-0.055634451
-0.065664334
-0.074197524
-0.078961646
-0.081220706
-0.081169458
-0.079409393
-0.07401101
-0.065824024
-0.055704763
-0.045468659
-0.036267083
-0.028419715
-0.021692751
-0.015813633
-0.010450624
-0.0051487651
-0.0022077844
0.001237764
0.0020943504
-0.0028513844
-0.0071094844
-0.012726803
-0.018742813
-0.025408775
-0.032554583
-0.040338984
-0.049067638
-0.059062041
-0.069878343
-0.077873777
-0.080982348
-0.082920785
-0.082967371
-0.082037492
-0.077477624
-0.069683076
-0.059104602
-0.048001186
-0.038165041
-0.029937451
-0.022945856
-0.016828791
-0.011205156
-0.0060873253
-0.0025883697
0.0016570568
0.00040322092
-0.0027869375
-0.0080607302
-0.013657304
-0.019817346
-0.026478751
-0.033537535
-0.04131319
-0.050256449
-0.060601269
-0.071238377
-0.078601517
-0.0834697
-0.085093848
-0.08340494
-0.082285005
-0.078386126
-0.070742176
-0.059837584
-0.048525454
-0.038704268
-0.030466197
-0.023389578
-0.017089863
-0.011338965
-0.0057569948
-0.0022203317
0.0010592649
0.0016218447
-0.003307803
-0.0083087878
-0.014050858
-0.020153056
-0.026593025
-0.033300472
-0.040775452
-0.049565914
-0.059731799
-0.069496778
-0.076442339
-0.0817387
-0.085053655
-0.08279689
-0.081200135
-0.07718196
-0.069178427
-0.058136005
-0.047303895
-0.037974963
-0.030023124
-0.022992451
-0.016647571
-0.010713191
-0.0058997984
-0.0019822289
0.0014673015
0.002255624
-0.0024588222
-0.0080330312
-0.013743308
-0.019671588
-0.025702628
-0.031876894
-0.038929735
-0.047199977
-0.056495552
-0.065677661
-0.073129093
-0.077765945
-0.079733549
-0.079443963
-0.077781959
-0.073156747
-0.065021694
-0.054667072
-0.044834994
-0.036225616
-0.028652594
-0.021744923
-0.015460086
-0.0095430826
-0.0048530586
-0.0016592653
0.0019633038
0.0034997892
-0.0016095723
-0.0071489216
-0.012775368
-0.018338853
-0.023865176
-0.029482219
-0.035958068
-0.043367491
-0.051487703
-0.059585912
-0.066584355
-0.071670208
-0.074123923
-0.073877311
-0.071542273
-0.066575821
-0.058858599
-0.0498062
-0.041243851
-0.033473141
-0.026363766
-0.019718921
-0.013646633
-0.0080245421
-0.0034114601
-0.0010171049
0.0043880581
-0.00033710248
-0.0055902333
-0.011095133
-0.016255663
-0.021283571
-0.026355722
-0.032153147
-0.038550869
-0.045323075
-0.051951274
-0.057811194
-0.062263106
-0.064856064
-0.06504757
-0.062748044
-0.058106075
-0.051518352
-0.044059342
-0.036796079
-0.029882925
-0.02332719
-0.017116433
-0.011449037
-0.0063720973
-0.0020377527
-0.00043715389
0.00061306969
-0.0036407879
-0.0088389412
-0.013522617
-0.018122423
-0.022698863
-0.027810298
-0.033271933
-0.038877227
-0.044168854
-0.048720582
-0.052154281
-0.054246018
-0.054537118
-0.052782407
-0.049048545
-0.043846229
-0.037875949
-0.031769583
-0.025692686
-0.0197697
-0.014120453
-0.0089514122
-0.0043999574
-0.00090321621
0.0013222667
0.0039399199
-0.0013128427
-0.0060205718
-0.010236555
-0.014507521
-0.018633054
-0.023129231
-0.027794506
-0.032489184
-0.036817164
-0.040434106
-0.043034934
-0.044510088
-0.04465643
-0.043316275
-0.040473001
-0.036448044
-0.031671082
-0.026547503
-0.021269858
-0.016022563
-0.011024744
-0.0063369061
-0.0030046147
-0.0004207915
0.0023268
0.0046445129
0.0021055343
-0.002541609
-0.0064338287
-0.010517289
-0.014249048
-0.018232425
-0.022231084
-0.026210654
-0.029833717
-0.032840585
-0.03494944
-0.036049604
-0.036089822
-0.034978902
-0.032741698
-0.029556229
-0.025675819
-0.021366322
-0.016803621
-0.012223185
-0.0078625985
-0.003744158
-0.00039823952
0.00077571574
0.0035206429
-1.9714757e-05
-0.0023258576
-0.0063459388
-0.009710732
-0.013259947
-0.016713183
-0.020125211
-0.023220464
-0.025823261
-0.027668978
-0.028635873
-0.028665089
-0.027750682
-0.025946651
-0.023369681
-0.020183852
-0.016546654
-0.012622003
-0.00867186
-0.004609224
-0.0021806011
0.00070906609
0.0039211649
0.00046665226
-0.0018473284
-0.0052222751
-0.0083715343
-0.011330402
-0.014266303
-0.016912371
-0.01920964
-0.020897661
-0.02185821
-0.022000244
-0.021308706
-0.019837858
-0.017694706
-0.015012018
-0.011904868
-0.0084550215
-0.0048852271
-0.0023677157
-0.00018896219
0.0016378748
0.0038693097
0.00047821734
-0.00088483255
-0.0036766708
-0.006318368
-0.0089061232
-0.011181579
-0.013203069
-0.014733149
-0.015699306
-0.015970203
-0.015490929
-0.014348132
-0.012615618
-0.010456585
-0.0078946969
-0.0048790062
-0.0026864575
-0.00044846271
0.0010224831
0.0038921584
0.0027068877
-0.00050921757
-0.0018149646
-0.0040147745
-0.0058151899
-0.0075694316
-0.0089183552
-0.0098542706
-0.010263042
-0.0099787916
-0.0090792657
-0.007600729
-0.0058285491
-0.0037610508
-0.00081256815
9.5768897e-05
0.00091404554
0.0034564765
0.0029171831
0.0012844298
-0.00012157278
-0.0016901789
-0.0033021489
-0.0043608658
-0.0050452929
-0.0052742747
-0.004688045
-0.0040156128
-0.0030014221
-0.002268558
-0.0011286547
0.0019156475
0.0037372871
0.0020410384
0.0010685859
0.00026556827
-0.0003608272
-0.00086105064
-0.0010770773
-0.0011077551
-0.00047417191
-0.00010344845
0.0014685795
0.00026806474
0.0029170932
0.002605058
0.0020226692
0.0022655341
0.0022652648
0.0028955787
0.0029868186
0.0031868682
0.00099160786
0.00078679541
0.00076752961
0.00094405502
0.0027767562
0.003144148
0.0032019392
2.9124337e-05
-0.00087869373
-0.0022413093
-0.0032251091
-0.0042286432
-0.0043390286
-0.0039718885
-0.0032103079
-0.0018056865
-0.0004406395
0.00063765065
0.0023158023
0.0039016761
0.0031695837
0.0026040978
-0.001151648
-0.0036523754
-0.005774369
-0.0075531407
-0.0087253498
-0.0092615634
-0.0091522519
-0.0085516092
-0.0075464932
-0.0061210246
-0.0046235226
-0.0026805444
-0.0015277611
0.0012960156
0.0027721117
0.0035796675
0.00070294674
-0.0018061682
-0.0054661369
-0.0083965432
-0.010823106
-0.012790465
-0.014146866
-0.014908464
-0.014945191
-0.014328578
-0.013178131
-0.011515211
-0.0095519001
-0.0072277217
-0.0047799028
-0.0021580268
-0.00083170016
0.0019732069
0.0040199135
0.0017495255
-0.001063143
-0.0052941855
-0.009218193
-0.012591305
-0.015494355
-0.017906583
-0.019703696
-0.020797011
-0.021064427
-0.020496426
-0.019217446
-0.017314802
-0.014992499
-0.012281882
-0.0094600867
-0.0064037268
-0.0032383953
-0.001139875
0.0016172397
0.0039629179
0.0018945546
-0.00028243537
-0.005123926
-0.0094203716
-0.013487718
-0.017183411
-0.020485653
-0.02334869
-0.025642421
-0.02718606
-0.027821522
-0.027423251
-0.026083661
-0.023894306
-0.021101416
-0.0178637
-0.014459423
-0.010852974
-0.0074527344
-0.003700276
-0.001674452
0.0014913734
0.0050766118
0.00096007854
-0.003755602
-0.0084712642
-0.013102652
-0.017591273
-0.021839959
-0.025798573
-0.029367304
-0.032317885
-0.034372453
-0.035314009
-0.035019364
-0.03358986
-0.031083783
-0.027747821
-0.023852827
-0.019766931
-0.01555595
-0.01157118
-0.0074634758
-0.0040491268
-0.0001527031
-0.0012893727
0.0058444467
0.0012036156
-0.0021178835
-0.0070428315
-0.012032506
-0.017050086
-0.022058676
-0.027003932
-0.031811493
-0.036345988
-0.040217331
-0.042980356
-0.044183419
-0.043830687
-0.042078523
-0.039050933
-0.034986527
-0.030242863
-0.025291537
-0.020323594
-0.015693244
-0.011112824
-0.0072579587
-0.0031483665
-0.0011178041
0.0033196597
-1.2510062e-05
-0.0047845671
-0.0099175629
-0.015301417
-0.020822886
-0.026510597
-0.032341094
-0.038238342
-0.044038854
-0.049137019
-0.052829468
-0.054560173
-0.054089645
-0.051757328
-0.047904164
-0.042819118
-0.036968331
-0.030933846
-0.025028918
-0.019623162
-0.014456793
-0.010048718
-0.0054041345
-0.0022598364
0.00057002614
0.005026191
0.0015762785
-0.0023889709
-0.007422063
-0.012735221
-0.018474623
-0.024521142
-0.030944514
-0.037744325
-0.044858403
-0.052095182
-0.058538029
-0.063177033
-0.065584397
-0.065192228
-0.062382978
-0.057515518
-0.05112608
-0.043876815
-0.036527063
-0.029524925
-0.023242486
-0.017458903
-0.012443267
-0.007458304
-0.0031324909
0.00037868088
0.0040378877
-0.00022107908
-0.0042528721
-0.009611025
-0.015151204
-0.021279005
-0.027866222
-0.035010156
-0.04274595
-0.051042861
-0.059628557
-0.067118452
-0.072281643
-0.074992424
-0.074892593
-0.072204557
-0.066733318
-0.0592094
-0.050509504
-0.041737658
-0.03357048
-0.026391416
-0.020014151
-0.014471724
-0.0092791045
-0.0043731941
-0.0018858106
0.002371103
-0.0019606034
-0.0060495721
-0.011534576
-0.017259835
-0.023700892
-0.030710312
-0.03840082
-0.046879444
-0.056139445
-0.065729029
-0.073880258
-0.078583013
-0.081014928
-0.08082149
-0.078767847
-0.073370589
-0.065468921
-0.055791434
-0.045872488
-0.036732304
-0.028814866
-0.021952116
-0.015981652
-0.010582711
-0.0053230287
-0.0026228468
0.0011336305
0.0016079764
-0.0033604414
-0.0074983935
-0.013003084
-0.018890814
-0.025523644
-0.032749997
-0.040729613
-0.049677693
-0.05954105
-0.069787328
-0.077651435
-0.080774784
-0.083105919
-0.083123522
-0.08171185
-0.076928132
-0.069244651
-0.05908874
-0.048416744
-0.038655069
-0.030297141
-0.023135886
-0.016932261
-0.011305106
-0.0063089956
-0.0029763449
0.0013847904
-0.00034547378
-0.0033393804
-0.008540698
-0.01394848
-0.019949977
-0.026600401
-0.033803165
-0.041840982
-0.050974173
-0.061017573
-0.071156492
-0.07843606
-0.083881527
-0.086096949
-0.083983623
-0.082261462
-0.077900214
-0.070272904
-0.059828487
-0.048953525
-0.039142177
-0.030740163
-0.023489945
-0.017112617
-0.011395312
-0.0058836106
-0.0026914608
0.00076008394
0.00089612513
-0.0040352943
-0.0088768085
-0.014387616
-0.020315244
-0.026772527
-0.033697916
-0.041458458
-0.050381079
-0.060139106
-0.069458082
-0.076195419
-0.081960758
-0.085935608
-0.083362167
-0.081079405
-0.076583788
-0.068760539
-0.058258702
-0.047738988
-0.038324828
-0.030185891
-0.023007131
-0.016620549
-0.010740471
-0.0060845075
-0.0024759987
0.0012327469
0.0013975762
-0.0032376023
-0.0086828387
-0.01413086
-0.019897156
-0.025969819