/*--------------------------------*- C++ -*----------------------------------*\
| =========                 |                                                 |
| \\      /  F ield         | OpenFOAM: The Open Source CFD Toolbox           |
|  \\    /   O peration     | Version:  2406                                  |
|   \\  /    A nd           | Website:  www.openfoam.com                      |
|    \\/     M anipulation  |                                                 |
\*---------------------------------------------------------------------------*/
FoamFile
{
    version     2.0;
    format      ascii;
    arch        "LSB;label=32;scalar=64";
    class       volScalarField;
    location    "850";
    object      epsilon;
}
// * * * * * * * * * * * * * * * * * * * * * * * * * * * * * * * * * * * * * //

dimensions      [0 2 -3 0 0 0 0];

internalField   nonuniform List<scalar> 
150387
(
0.0023481043
0.00095797668
0.00087618179
0.00087575044
0.00095032939
0.0014474901
0.0024695744
0.0039935111
0.0057033917
0.00091884379
0.00075339856
0.00071245209
0.00070136262
0.00071062637
0.00073896285
0.00077408284
0.00082198386
0.00092927684
0.0010611479
0.0012473701
0.002930096
0.00089136802
0.00079375165
0.0008053158
0.0008711915
0.00093105276
0.00096239087
0.00096920779
0.00095255326
0.00092223885
0.00090051158
0.00091880367
0.00098150102
0.0010872233
0.0011875005
0.0012747049
0.0026405321
0.0064967181
0.00094082521
0.00088063727
0.00099978452
0.0011557431
0.0013026457
0.0014334508
0.0015288935
0.0015451787
0.0014768414
0.0013614507
0.0012270578
0.0011110083
0.0010729837
0.0011159671
0.0011937038
0.0012137832
0.0011456707
0.0019970339
0.0067055523
0.00098022616
0.00098783284
0.0011618455
0.0013697029
0.0015713655
0.0017614663
0.0019495982
0.0021175099
0.0022082325
0.0021885257
0.0020418696
0.0018255066
0.0015807796
0.0013566627
0.0012626222
0.0012798573
0.0013179743
0.0012497082
0.0011674637
0.0012202187
0.0010700748
0.001046054
0.0012333355
0.0014535298
0.0016754358
0.0018943381
0.0021265346
0.0023595789
0.0025760171
0.0027491059
0.0028116441
0.0027332001
0.0025026107
0.0022091563
0.0018851887
0.0015797718
0.0014427582
0.0014356834
0.0014105573
0.0012487
0.0010363677
0.0016615392
0.001243529
0.0011039986
0.0012515662
0.0014394666
0.0016285926
0.0018141258
0.0020334481
0.0022923982
0.0025552683
0.0027898165
0.002982801
0.0031189597
0.003164878
0.003084739
0.0028206034
0.0024653327
0.0020825686
0.0017351051
0.0015911976
0.0015577411
0.0014373173
0.0011680032
0.0010725586
0.0022168322
0.0054988528
0.0011701098
0.0012243994
0.0013631737
0.0015007769
0.0016447937
0.0018577563
0.002165166
0.0025044871
0.0027975122
0.0029926327
0.0031084217
0.0032217777
0.003284795
0.0032824204
0.0031944394
0.0029337228
0.0025754223
0.0021511094
0.0018270894
0.0017078147
0.0016153246
0.0013733219
0.0010518388
0.00097116186
0.0013175151
0.0011817485
0.0012626122
0.0013449232
0.0014588903
0.0016762158
0.0020492214
0.0024996189
0.0028746298
0.0030596951
0.0030323835
0.0028515152
0.0027019938
0.0027598511
0.0029205008
0.0030758311
0.0030829123
0.0028851782
0.0025395848
0.0021357514
0.0018828619
0.0017743844
0.0015677801
0.0012013302
0.0008894688
0.0014608401
0.0012053744
0.001171464
0.0011975125
0.0012824182
0.0014856162
0.0018930582
0.0024355751
0.0029013361
0.0031149983
0.0029553793
0.0023340653
0.0016547155
0.0012560032
0.0011891477
0.0014389966
0.0020167664
0.0026416441
0.0028831787
0.0027513131
0.0024169727
0.0020900478
0.0019231717
0.0017326012
0.0013748119
0.00094811815
0.0010120796
0.0024686338
0.0011444403
0.001076423
0.00111587
0.001287513
0.0016733932
0.0022457693
0.0027802385
0.0031017206
0.0030616035
0.0021716899
0.0010625144
0.00048937276
0.00029026488
0.00025557153
0.00032036128
0.00068323305
0.001550588
0.0024383249
0.0027363764
0.002581449
0.0022795672
0.0020632812
0.0018690188
0.0015227006
0.001057653
0.00094253035
0.0017499314
0.0010212365
0.00096739238
0.0010869965
0.0014038109
0.0019368381
0.0025079891
0.0029709529
0.0031970704
0.0026248692
0.0011280586
0.00034622046
0.00015065447
0.00011075281
0.00010992834
0.00011462518
0.00021813931
0.00070379929
0.0017351746
0.0025103742
0.0026201219
0.0024064666
0.0021869731
0.0019745317
0.0016307085
0.0011508005
0.00086407295
0.0034509481
0.0011935884
0.00088750072
0.00090801746
0.0011228662
0.0015572053
0.0021299864
0.0026679933
0.0030865014
0.0031758296
0.0019894737
0.00061072911
0.0001844558
0.00010245778
9.8897424e-05
7.4245265e-05
7.4446131e-05
0.00011253913
0.00034808212
0.001194383
0.0022170743
0.0025755243
0.0024585669
0.0022700044
0.0020385075
0.0016907749
0.0012003845
0.00085471492
0.0016380642
0.0010621706
0.00079467928
0.00089739015
0.0011792379
0.0016764643
0.0022555535
0.0027287558
0.0031611314
0.0030070528
0.0016252229
0.00048494883
0.0001615074
0.00013151245
0.00049086595
4.9038094e-05
6.3637058e-05
8.4460045e-05
0.0002337306
0.00089755015
0.0019998078
0.0025083272
0.0024629353
0.0023236515
0.0020805563
0.0016796025
0.001202016
0.00085715714
0.0015745592
0.00098157244
0.00074278625
0.00089619313
0.0012181188
0.0017425365
0.0022692581
0.0026852361
0.0031628062
0.0028309664
0.0016123513
0.00052303943
0.00016961868
0.00013962085
0.00015067994
0.00011164058
7.7669297e-05
9.7499958e-05
0.0002506433
0.00084662181
0.0019921509
0.0024992321
0.0024911332
0.002350909
0.0020481092
0.0016088127
0.0011763131
0.00085760841
0.0017588994
0.00097813056
0.00071020373
0.00087905728
0.0012220927
0.001708131
0.0021703412
0.0025742193
0.0030411797
0.0028286702
0.0018803635
0.0007579329
0.00024975728
0.00013969266
0.0001035532
9.0463523e-05
0.00010119917
0.00015571825
0.00039885393
0.0011414477
0.0021982859
0.002547917
0.0025379985
0.0023142974
0.00195335
0.0015275137
0.0011309429
0.00086316641
0.0049396759
0.0014576913
0.0007046908
0.00084664112
0.0011818216
0.0015895503
0.0019927521
0.0023858598
0.0028907697
0.0028833633
0.0023206255
0.0012702715
0.00048935751
0.00022391612
0.00014908545
0.00014189034
0.0001887322
0.00033500202
0.0007690339
0.0016806653
0.0024309247
0.0026105891
0.0025250526
0.0022177557
0.0018425391
0.0014404527
0.0010654722
0.00093698384
0.0035144154
0.0028601326
0.00071680294
0.00080164231
0.0011016971
0.0014356637
0.0017715998
0.002139361
0.0026728516
0.0028848288
0.0026871636
0.0020759444
0.0011738852
0.00058773195
0.00038101066
0.0003834709
0.00052263662
0.00084995348
0.0014727215
0.0022212239
0.0025724692
0.0026143161
0.0024180646
0.002091753
0.0017220895
0.0013243158
0.00096546255
0.00090201194
0.00080024558
0.00075228512
0.0010006502
0.0012957303
0.0015578897
0.0018621479
0.002364319
0.002761213
0.0027797237
0.0026582379
0.0022328937
0.0015940455
0.0011634109
0.0011369441
0.0013456306
0.0017210834
0.0021921653
0.0025132541
0.0025994589
0.0025276889
0.0022806758
0.0019388473
0.001536189
0.0011364038
0.00089267488
0.0015173203
0.001053718
0.00072640614
0.00089531324
0.0011545992
0.0013782049
0.001588595
0.0019998128
0.0024627694
0.0026686189
0.0027173945
0.0027045868
0.0025571339
0.0023040035
0.0021660721
0.0022401352
0.00239868
0.0025443206
0.0026125423
0.0025781553
0.0023674192
0.0020417449
0.0016504448
0.0012614681
0.00096634774
0.0010172833
0.0020932383
0.00077790728
0.00080552124
0.0010149697
0.0012150437
0.0013659668
0.001632267
0.0020622959
0.0023632032
0.002514411
0.0026095234
0.0026519617
0.0026722948
0.002673251
0.0026755565
0.002683162
0.0026626258
0.002548977
0.0023201267
0.0020026236
0.0016500913
0.0013061468
0.0010268841
0.00091975506
0.0013468306
0.0012668832
0.00079374019
0.00088999325
0.0010599162
0.0011848924
0.0013335935
0.0016401149
0.0019628872
0.0021415349
0.0022693667
0.0023546754
0.0023950928
0.0024316473
0.0024479378
0.0024052187
0.0022793408
0.0020799879
0.0018254528
0.0015577171
0.0012866847
0.001048052
0.00091636269
0.00099372924
0.0041746184
0.0011258719
0.00084363179
0.00092038973
0.0010302789
0.0011129904
0.0012872764
0.0015399404
0.0017215339
0.0018257485
0.001925821
0.0019924426
0.0019959971
0.0019480122
0.0018799472
0.0017630218
0.0016094047
0.0014256347
0.0012290012
0.0010389386
0.00091940775
0.0011507396
0.0026025187
0.0010668325
0.00084842678
0.00091231445
0.00095351028
0.0010258117
0.001185003
0.0013417377
0.0014205051
0.001486127
0.0015491265
0.0015926451
0.0015663108
0.0015002199
0.0013983246
0.0012686709
0.0011184313
0.0009643551
0.00085712134
0.00090818504
0.00140076
0.0015503582
0.00094029343
0.0008793364
0.00086825679
0.00092051218
0.0010190489
0.0010957373
0.0011315793
0.0011598878
0.0011866926
0.0011798061
0.0011226721
0.0010372826
0.00093403201
0.00084528035
0.00083717185
0.0010739957
0.0021842479
0.0029528957
0.0011449487
0.00083996022
0.0008047558
0.00080808414
0.00083671129
0.0008567472
0.0008575752
0.00084720281
0.0008298177
0.00079477044
0.00075842583
0.00074495071
0.00078167169
0.0010831255
0.0033587399
0.0036467779
0.0011654044
0.00082081684
0.0007873995
0.00073062191
0.00072754482
0.00072696239
0.00073187372
0.00078407621
0.0008475049
0.0010574843
0.0019468998
0.0028992463
0.0018235767
0.0015430663
0.0013945125
0.0015934959
0.0034028023
0.002794664
0.0012738067
0.00088434377
0.00086174988
0.00093593247
0.0010840738
0.0014445007
0.0016658368
0.0029238098
0.0010010566
0.00063544226
0.00061199856
0.00060683089
0.00060764088
0.00061691077
0.00063577016
0.00067069127
0.00071926218
0.00081199181
0.0010380911
0.001142983
0.0029221513
0.0046603416
0.0019629526
0.00070308351
0.00067780542
0.00068475067
0.00069746125
0.00070435998
0.00069878465
0.00067572666
0.00064923265
0.0006286388
0.00062369233
0.00064328247
0.00067229677
0.00074673076
0.00084144672
0.0014894301
0.0014095831
0.0016881211
0.00088131505
0.00079864225
0.00080499465
0.00083363677
0.0008631218
0.00088597387
0.00089602314
0.00088146904
0.00083809906
0.0007715087
0.00069816408
0.00065185962
0.00064785594
0.00067517864
0.00072185613
0.00080010201
0.00096635067
0.0016224147
0.0019207864
0.00095215924
0.00086213409
0.00087495922
0.00091009688
0.00095079519
0.00099730969
0.0010447924
0.0010857932
0.0011096045
0.0011000889
0.0010456846
0.00094476369
0.00081328982
0.00071203495
0.00067953327
0.00069720988
0.00072752018
0.00077627884
0.00089686605
0.0013942661
0.0029149724
0.0010088701
0.00089371594
0.00089708424
0.00091110228
0.00093250566
0.00097508479
0.0010313267
0.0010874931
0.001133827
0.0011703189
0.0011989924
0.0012116436
0.0011752535
0.0010687741
0.00091630205
0.00077504088
0.00071615181
0.00072250025
0.00074659399
0.0007765964
0.00085539787
0.0013811942
0.0014233733
0.00091515753
0.00089036083
0.00087285747
0.00086361466
0.00089496947
0.00095687278
0.0010297042
0.0010829857
0.0011112246
0.0011258206
0.001140269
0.0011691435
0.0012034292
0.0011900661
0.0011106512
0.00095968979
0.00081378476
0.00074959144
0.00075275799
0.00076512388
0.00075779025
0.00073967279
0.0017144536
0.0017391496
0.0009461451
0.00087217089
0.00082342092
0.00078793788
0.00080979931
0.00088710951
0.00099932027
0.0010692834
0.001066597
0.0010061608
0.00093025304
0.00088733087
0.00089859002
0.0009670258
0.0010628411
0.0011209519
0.0010770192
0.00095158546
0.00082994421
0.00078424432
0.00078247943
0.00075441079
0.00068879315
0.00080971508
0.0011826452
0.0008840763
0.00079139721
0.0007324219
0.00074060135
0.00082717143
0.00098275314
0.0010817201
0.0010368168
0.0008706192
0.00066521863
0.00050271986
0.00041510573
0.00042341148
0.00052497558
0.00070284039
0.00090186121
0.0010283756
0.0010172875
0.00092378684
0.00084187327
0.00081683768
0.00077943537
0.00068796634
0.00063411132
0.0014003062
0.005402871
0.0011154996
0.00079378054
0.00070496781
0.00068648991
0.00075672062
0.00093513107
0.0010799375
0.0010461708
0.00081248941
0.00050857732
0.00026498534
0.00013265524
8.0318727e-05
8.8044101e-05
0.00015429002
0.0003180023
0.00056988856
0.00082948852
0.0009718594
0.00096512856
0.00090206797
0.00086399157
0.00081719252
0.00071154946
0.00060146318
0.00073155503
0.0021748406
0.0009153496
0.00071860563
0.00065055893
0.00068128637
0.000839376
0.001035157
0.0010866746
0.0008885395
0.00052047208
0.00020717702
5.4302607e-05
2.0128968e-05
1.7656806e-05
1.7378743e-05
2.1573262e-05
8.7476293e-05
0.00028796476
0.00058509203
0.00085278432
0.0009516421
0.00093316494
0.00090568224
0.00085596323
0.00074184243
0.00058492189
0.00061097317
0.0036167706
0.00080687694
0.00064806224
0.00062465074
0.00071977835
0.00092579116
0.0010768895
0.0010302067
0.00070116857
0.00028806692
6.2830764e-05
1.3417003e-05
1.500396e-05
1.7415598e-05
1.6326516e-05
1.5814461e-05
1.6223048e-05
0.0001207027
0.00038739163
0.00070972533
0.00091227628
0.00094246669
0.00093450255
0.00088890424
0.00076730436
0.00058607334
0.00054380236
0.0034231432
0.0014655718
0.00072817758
0.00060429541
0.00062115307
0.00077231534
0.00097009044
0.0010787838
0.00096684694
0.00055020421
0.00016243807
2.6126807e-05
1.3281649e-05
1.6807033e-05
4.8478912e-05
3.4915075e-05
1.6937633e-05
1.5684132e-05
5.31043e-05
0.00026588028
0.00059713865
0.0008629861
0.00094249878
0.00095371458
0.0009114608
0.00078058242
0.0005837846
0.00049983338
0.0016047263
0.0011082105
0.00065934872
0.00058285026
0.00063375581
0.00080588922
0.00097564492
0.0010675233
0.00092590136
0.00047981777
0.00013044755
2.4944945e-05
1.3399343e-05
2.3998544e-05
0.00028384297
2.8306099e-05
1.5714712e-05
1.5316248e-05
4.1950354e-05
0.00021890779
0.00054061348
0.00083230708
0.00094367067
0.00096794981
0.00092094253
0.00077402216
0.00056513808
0.00049218234
0.0015503559
0.0010762429
0.00062096787
0.00057810816
0.00064662743
0.00080506644
0.00095462381
0.0010538863
0.0009211066
0.00050408612
0.00016324291
3.002481e-05
1.3556861e-05
1.7391684e-05
5.0288506e-05
1.8465326e-05
1.4529081e-05
1.5452784e-05
5.7859306e-05
0.00023642743
0.00054670848
0.00083106635
0.00095277292
0.00097789806
0.00091245835
0.0007434078
0.00053599819
0.00046129285
0.0016319442
0.0010173406
0.0005952543
0.00057697042
0.00064654383
0.00077805421
0.00091637627
0.0010333141
0.00095445146
0.00060096055
0.00025236539
6.8054169e-05
1.398526e-05
1.2746956e-05
1.2860376e-05
1.3303572e-05
1.3756039e-05
2.7018454e-05
0.00011021219
0.00031218067
0.00060760966
0.00086078191
0.00097014376
0.00097866016
0.00087952214
0.00068870368
0.00049281746
0.00042222538
0.0022399397
0.0012544258
0.00058814716
0.00057671997
0.00063491172
0.00073435981
0.00085895276
0.00099810853
0.00099692845
0.00074328899
0.00040935482
0.00017439558
5.8366703e-05
2.6084258e-05
2.0803226e-05
2.1237574e-05
3.456337e-05
8.9055361e-05
0.00021944129
0.00043929932
0.00070761041
0.00091217661
0.00098450659
0.00095756805
0.00081607103
0.00060817004
0.00045599089
0.00047191711
0.0015670569
0.0005922572
0.00057517453
0.00061823503
0.00068410238
0.00078524505
0.00093328565
0.0010091477
0.00088860841
0.00062516081
0.00036851506
0.00019125787
0.00010592365
8.2867846e-05
9.0910055e-05
0.00013268122
0.00022705166
0.00038738423
0.0006071152
0.00082858156
0.00096086705
0.00098171126
0.00089679831
0.0007149384
0.00053233482
0.00049738242
0.00058892325
0.0006185771
0.00057570452
0.00060409284
0.00063645372
0.00070347218
0.00083877345
0.00096839045
0.00097202129
0.00084122802
0.00064288408
0.00044910126
0.00031074829
0.00025227311
0.00026195607
0.00032568417
0.00044277016
0.00061016543
0.00079604688
0.00093401145
0.00098462059
0.00093953257
0.00079088897
0.00060478147
0.00049708221
0.00056087263
0.00089063064
0.00062908755
0.00058657921
0.00059934038
0.00060051127
0.00062679755
0.00072338341
0.0008677452
0.00096028237
0.00095283268
0.00088363139
0.00077474942
0.00066170514
0.00058451786
0.00057361908
0.00063036498
0.0007314218
0.00085231994
0.00094695273
0.00098469559
0.00095040943
0.00082553875
0.00065520238
0.00052285913
0.00049345604
0.00070915861
0.0033026022
0.0021153356
0.00063240665
0.00062057574
0.00058453441
0.00057159707
0.00061583203
0.00072791438
0.00085699369
0.00093128326
0.0009546065
0.00095397321
0.00093578374
0.00091609927
0.00090941519
0.00092665038
0.0009618106
0.00098738599
0.00098602831
0.00093329121
0.00082119643
0.00067129082
0.00054194162
0.00049227049
0.00095817475
0.0016534221
0.00086207118
0.00072375503
0.00060342588
0.00054839727
0.00054011985
0.00059648677
0.00070078072
0.00080596328
0.00087654558
0.00092149805
0.00095095365
0.00097200906
0.00098510273
0.00098762671
0.00097441064
0.00093803281
0.00087286153
0.00076951169
0.00064722426
0.00053814107
0.0004884124
0.00059888019
0.00067777063
0.0011471802
0.0007312482
0.00057376067
0.00051012662
0.00051017882
0.00055828924
0.00064537127
0.00072354062
0.00078182442
0.00082086345
0.00084573172
0.00085612813
0.00084865034
0.00081721387
0.0007614846
0.00068371014
0.00059449521
0.00052109174
0.0004881231
0.00058008807
0.00067860828
0.0017795732
0.0011943577
0.0007442589
0.00056917627
0.00048437714
0.00047675857
0.00050651691
0.00056453655
0.00062096658
0.0006573579
0.00067629203
0.00067830869
0.0006638439
0.00063180268
0.00058508722
0.00053404888
0.00050005277
0.00049167813
0.00058513442
0.00067212618
0.0016162387
0.0014865845
0.0011024217
0.00054773429
0.00047018139
0.00044201689
0.00044875196
0.0004786972
0.00051181273
0.00053014305
0.00053411889
0.00052453507
0.00050550313
0.00048628179
0.00047667339
0.00049309019
0.000547853
0.00072194353
0.0016180639
0.0019524652
0.00088931893
0.00069593532
0.00057007223
0.00042746296
0.00040482233
0.00041256755
0.00042288741
0.00042892364
0.00043281165
0.00044235304
0.00046001838
0.00049628876
0.00053695665
0.0008632781
0.0017236837
0.0020936153
0.00068141169
0.00049795624
0.00039125168
0.00039723803
0.00041292783
0.00043575737
0.00047654674
0.00055058039
0.00086918057
0.0024090666
0.0045551032
0.001702358
0.0014585691
0.0014170578
0.0018439513
0.0050755439
0.0026297801
0.0017778404
0.0016054629
0.0016025261
0.0016676036
0.0018839534
0.0022882091
0.0035156
0.001334193
0.0010859952
0.0010403725
0.0010379661
0.0010441625
0.0010762947
0.0011259642
0.0011854361
0.0012388952
0.0012939058
0.0014641641
0.0014729085
0.0032001816
0.0047162642
0.0022961117
0.00095784881
0.00092101757
0.00092968803
0.00093842332
0.00093710236
0.00092572628
0.00091045881
0.00090604129
0.00092833115
0.00097952562
0.001042986
0.0010965262
0.0011474844
0.0011805685
0.0018040774
0.0018265073
0.0019823861
0.0010591192
0.00099007936
0.0010021223
0.0010205402
0.0010284333
0.0010243006
0.0010085567
0.00097772987
0.00093411217
0.00088809386
0.00086054864
0.00087280043
0.0009159748
0.00099320808
0.001023746
0.0011300242
0.0012991601
0.0020709597
0.0023288527
0.0011544577
0.0010590086
0.0010881746
0.0011205496
0.0011342731
0.0011376284
0.0011392217
0.0011406483
0.0011337874
0.001107165
0.001052564
0.00097437537
0.00089748722
0.00085649908
0.00088284599
0.00094512805
0.00098519522
0.0010109117
0.0011694553
0.0017900461
0.0036778347
0.001291711
0.0011363803
0.001148346
0.0011573446
0.001136737
0.0011114634
0.0010999983
0.0011034256
0.0011148438
0.0011286049
0.0011405357
0.0011380191
0.0011079281
0.0010363758
0.00094160846
0.00087629576
0.00088752191
0.0009371367
0.0009647353
0.00096736958
0.0010868382
0.0016733388
0.0016654484
0.0012420627
0.001176161
0.0011423031
0.0010773555
0.0010154673
0.00099168604
0.0009927328
0.00099491551
0.00098729559
0.00097399459
0.00097872109
0.0010108714
0.0010554072
0.001078664
0.0010394972
0.00095434149
0.00089427387
0.00090805823
0.00095494453
0.00095393134
0.00093369643
0.00086094707
0.0022443288
0.0018992717
0.0012569653
0.0011748832
0.0011199736
0.0010158527
0.00092511263
0.00090510969
0.00091921542
0.00091740818
0.00087046005
0.00079314184
0.00072343696
0.00069248903
0.00071704872
0.00079831439
0.00090978576
0.00099255431
0.00099700174
0.00093969147
0.00090907305
0.00094422125
0.00097105518
0.00092795453
0.00081153642
0.0010029589
0.0014657262
0.0012338711
0.0011357384
0.00099282304
0.00086876213
0.0008452214
0.00088138652
0.0008953603
0.00081604175
0.00066433602
0.00050457047
0.00038621593
0.00032497892
0.00033551434
0.0004228699
0.00058241499
0.00077233231
0.00091139373
0.00094876633
0.00092778037
0.00094095712
0.00098200707
0.00095543728
0.00082249329
0.00073322184
0.0016141186
0.0062723375
0.0014923358
0.0012030579
0.0010246439
0.00085434595
0.00079735943
0.00084670042
0.0008978899
0.000823722
0.00061882704
0.00038824305
0.00021055042
0.00011208203
7.2030865e-05
8.014036e-05
0.00013568248
0.00027221977
0.00048902886
0.00072313191
0.00087794667
0.00092421775
0.00094450105
0.00098735633
0.00098044664
0.00085240703
0.00068755649
0.00087710739
0.0027421751
0.0013434075
0.0011395693
0.00090600449
0.00077417394
0.00079946941
0.0008836574
0.00087471654
0.00067919305
0.00039220131
0.00016914929
5.1816185e-05
2.0068826e-05
1.7259206e-05
1.7047565e-05
2.3986331e-05
8.3964667e-05
0.00025951562
0.00051701829
0.00075474646
0.00088600637
0.00094091063
0.00099155151
0.00099715894
0.00087878098
0.00066960998
0.00070102246
0.0042248985
0.0012901163
0.0010411026
0.00080315827
0.00075571549
0.00083382066
0.00090052642
0.00080939905
0.00052230902
0.00022636627
6.427918e-05
1.4457289e-05
1.4534057e-05
1.6241032e-05
1.5237817e-05
1.472639e-05
1.8346442e-05
0.00011844478
0.00035498286
0.0006300165
0.00082556921
0.00092878784
0.0009941069
0.0010058947
0.00089307623
0.00066525089
0.00060245188
0.0033735893
0.0019011984
0.0012281243
0.00093994607
0.00075039127
0.00077179168
0.00085883133
0.00088862181
0.00073884133
0.00041051644
0.0001455415
3.5836916e-05
1.3853129e-05
1.5697021e-05
4.7219423e-05
3.5157046e-05
1.6299288e-05
1.5559064e-05
5.9038962e-05
0.00025675627
0.00053821768
0.00077137564
0.00091227006
0.0009950727
0.0010063984
0.00089136347
0.00065456498
0.00054381554
0.0016815704
0.0016340529
0.0011504336
0.00086751508
0.00073842046
0.00079551754
0.00086514184
0.00086958601
0.00069375708
0.00036822306
0.00012959043
3.3464688e-05
1.3822682e-05
2.0779498e-05
0.00029741797
3.5804643e-05
1.5154805e-05
1.5374551e-05
4.8245308e-05
0.00022310649
0.00049490759
0.00074172643
0.00090376988
0.00099780025
0.00099716688
0.00086598682
0.00062257734
0.00055010033
0.0016358296
0.0017018988
0.0010826512
0.00083457825
0.00074595301
0.0008064493
0.00085512121
0.00085515585
0.00068851961
0.00039244518
0.00015705593
4.5113043e-05
1.4370632e-05
1.5491683e-05
5.4403589e-05
1.8619104e-05
1.3777176e-05
1.5922213e-05
6.8731903e-05
0.00024460675
0.00050083195
0.00074447052
0.00091191341
0.0009999966
0.00097279386
0.00081472694
0.00058253843
0.00049930239
0.0017197888
0.0017557086
0.0010239951
0.0008211974
0.00075700074
0.00080458695
0.000838706
0.00084742926
0.00072151752
0.00046582282
0.00022572867
8.6581745e-05
2.8360007e-05
1.3044968e-05
1.2186497e-05
1.2580288e-05
1.3502138e-05
3.7095476e-05
0.00012871097
0.00031150615
0.00055161532
0.0007800005
0.00093468771
0.0009926907
0.00092629079
0.00074063073
0.00053046175
0.00044734419
0.0021518919
0.0023910361
0.0010041901
0.00081729276
0.00076526973
0.00079572887
0.00081629294
0.00083944144
0.00077149414
0.00057424713
0.00034159444
0.00017251845
8.2564692e-05
4.32676e-05
2.8520021e-05
2.8119498e-05
5.0727612e-05
0.00011141051
0.000232625
0.00041734606
0.00063971295
0.00083918456
0.000959283
0.000964146
0.00084880819
0.00064048376
0.00049047153
0.00059039637
0.0031459558
0.00099866143
0.00081250994
0.00076893458
0.00078454644
0.00079127947
0.00081871709
0.00081349531
0.00069615635
0.00050244043
0.00031787379
0.00019330373
0.00013144831
0.0001102894
0.0001171168
0.00015785743
0.00024125152
0.00037627021
0.00055653892
0.00075016244
0.00090067452
0.00095775976
0.00089697178
0.00073900578
0.0005647597
0.00058872052
0.00075922166
0.0010421459
0.00080714734
0.00076926644
0.00077263859
0.00076225559
0.00078267065
0.00081924325
0.00079298273
0.0006772354
0.00052242367
0.00038185742
0.00029138106
0.0002580005
0.00027072018
0.00032435777
0.00042018926
0.00055605073
0.00071397568
0.00085633864
0.00093263845
0.00090719204
0.00079185706
0.00062830911
0.00053061822
0.00067315446
0.0011013479
0.00097660215
0.00081144453
0.00077002197
0.00076199505
0.0007389843
0.00073632955
0.00078008942
0.00082081606
0.00080188712
0.00072620725
0.00062853616
0.00054041102
0.00049278618
0.00049774131
0.0005498196
0.00063570259
0.0007433706
0.00084709174
0.00090831608
0.00089403904
0.00080382464
0.00066240197
0.00054220412
0.00054854983
0.00089503351
0.0038657242
0.0025908028
0.00086629244
0.00079338023
0.0007550709
0.00072247543
0.00069318323
0.00071711147
0.00077578153
0.00082182723
0.00082921147
0.00080671604
0.00077435921
0.00074757671
0.00074328144
0.00076900429
0.00081622859
0.00086573606
0.00088807297
0.00086447094
0.00078585251
0.00066534516
0.00056066996
0.0005837677
0.0011709829
0.0019204046
0.0010233018
0.00091479107
0.00078232697
0.00071958093
0.00066388304
0.00065634056
0.00069677142
0.00075854787
0.00080677068
0.00083402742
0.0008479487
0.00085413182
0.00085770287
0.00086167647
0.00086461896
0.00085546379
0.0008188445
0.00074744453
0.00064834534
0.00056079264
0.0005495103
0.00075318314
0.00084729401
0.0013272079
0.00095639496
0.00076968674
0.00066662723
0.00061097416
0.00061917606
0.00066501964
0.00072523362
0.00076932913
0.00079708964
0.00081336025
0.00082001927
0.00081600125
0.00079684532
0.00075908402
0.00069983669
0.0006244103
0.00055870579
0.00055492172
0.00073358759
0.00087573342
0.0021190397
0.0014901982
0.0010139388
0.00080108916
0.00060910081
0.00057346826
0.0005719794
0.00061743718
0.00066995778
0.00070549165
0.00072415188
0.00072782418
0.00071785553
0.00069262287
0.00065328798
0.00060559954
0.00056798366
0.00058499831
0.0007486868
0.00086372935
0.0018848061
0.0018735101
0.0013923092
0.00076150642
0.00062598279
0.00055818388
0.00052209786
0.0005551715
0.00059285501
0.00061797311
0.00062810345
0.00062156734
0.00060246714
0.0005790361
0.00056405112
0.00058166928
0.00066553033
0.000931115
0.0018747545
0.0023162929
0.0011270071
0.00093361064
0.00081937906
0.00059222069
0.00051027237
0.0004990473
0.00050357722
0.00051096523
0.00051623065
0.00052532264
0.00054903893
0.00059679301
0.0006423413
0.001067998
0.002036979
0.0026532648
0.0010254379
0.00074999986
0.00051177557
0.00047724361
0.00047936356
0.00050428728
0.00056266507
0.00065577752
0.0010088493
0.0025839461
0.0057129659
0.0022824651
0.0018697241
0.0016633201
0.0017995856
0.0091018863
0.0043772089
0.0028086516
0.0024121924
0.0022554473
0.0022047274
0.0023468821
0.0026821257
0.0039547076
0.0027659467
0.0020490113
0.0018906456
0.0018301162
0.001796518
0.0018050207
0.0018288416
0.0018427078
0.0018258249
0.0017835243
0.0018480609
0.0017777597
0.0035294692
0.0052365848
0.0040650287
0.0017672746
0.0015567221
0.0015013843
0.0014690611
0.0014365457
0.0014053803
0.0013889081
0.0014049549
0.00145988
0.0015356958
0.0015931177
0.0015922476
0.0015594541
0.0015056589
0.0020218158
0.0021187057
0.0024152642
0.0015917152
0.001430857
0.0013714947
0.0013349406
0.0012989461
0.001260261
0.0012180964
0.0011756516
0.0011444661
0.0011395898
0.0011790137
0.0012667152
0.0013622431
0.001442538
0.0014268785
0.0014733769
0.0015403181
0.0023449722
0.002493708
0.001382846
0.0013334449
0.0013691645
0.0013948651
0.0013914724
0.0013684838
0.0013379846
0.0013074328
0.0012709638
0.0012212847
0.0011639189
0.0011122002
0.0010973266
0.0011426978
0.0012491613
0.0013478175
0.0013777737
0.0013434549
0.0013906389
0.0020343764
0.0038659419
0.0014631037
0.0013906015
0.0014563354
0.0014842761
0.0014498636
0.0013832306
0.00131625
0.0012642241
0.0012302158
0.0012131827
0.0012066668
0.0011950394
0.0011646357
0.0011168556
0.0010817736
0.0011082378
0.001211548
0.0013147354
0.0013334979
0.0012483172
0.0012632972
0.0018140498
0.0018700822
0.0015271599
0.0015316764
0.0015210032
0.0014273836
0.0012979946
0.0011863559
0.0011065892
0.001048827
0.0010055119
0.00097844804
0.00098083069
0.0010157536
0.001064584
0.0010950308
0.0010872107
0.0010693586
0.0011098363
0.0012216598
0.0013153729
0.0012743415
0.0011494821
0.00095455718
0.0022744938
0.0020596049
0.0015583253
0.0015559839
0.0015305652
0.0013845702
0.0011994482
0.0010602875
0.00097847157
0.00091256349
0.00083548016
0.00075305921
0.0006882187
0.00066299511
0.00069387063
0.00078310486
0.00090280265
0.00099948088
0.0010391403
0.0010595753
0.0011384905
0.001262687
0.0012997715
0.0011792022
0.00094073491
0.0010607015
0.0017271675
0.0015992269
0.0015673679
0.0013893812
0.0011516847
0.0009882332
0.00091790746
0.00086285358
0.00076112147
0.00062069304
0.00048427801
0.00038501725
0.00033710121
0.00035059734
0.00043554357
0.00059178189
0.00077961541
0.00092774281
0.0010056194
0.0010754571
0.0011995962
0.0012932198
0.0012227653
0.00097706722
0.00078573453
0.0016137939
0.0067987832
0.0018247543
0.0016508868
0.0014748742
0.0011823541
0.00096757777
0.00089386058
0.00086369016
0.00076248042
0.00057844996
0.00038302014
0.00023333053
0.00014136355
0.00010211702
0.00010812615
0.00016633789
0.00030167388
0.00051455211
0.0007438606
0.00091007954
0.0010164669
0.0011411692
0.0012661294
0.0012458609
0.0010211957
0.00075879886
0.00090131218
0.0031026675
0.0017653675
0.0016532503
0.0013263988
0.0010100443
0.00088707095
0.0008742734
0.00081420115
0.00062753735
0.00038656577
0.00019520371
8.2468769e-05
3.3726401e-05
2.4576138e-05
2.4430157e-05
4.0435329e-05
0.00011324893
0.00029517034
0.00055089069
0.00078587225
0.00094855661
0.0010909796
0.0012331625
0.0012475264
0.0010506736
0.00074214329
0.00074416396
0.0046489767
0.0018047196
0.0015838251
0.0011591395
0.0009137339
0.00087650393
0.00086506361
0.00074294414
0.00049335689
0.00025001231
9.8693104e-05
3.1096286e-05
1.7018898e-05
1.751409e-05
1.6535836e-05
1.6726284e-05
3.4496965e-05
0.00015368648
0.00039809608
0.00066820226
0.00087882694
0.0010485214
0.001202777
0.0012345823
0.0010585267
0.00074268634
0.00065270192
0.003416963
0.0023407547
0.0018201784
0.0014795343
0.0010377985
0.00088980766
0.00088762042
0.00084490395
0.00067472756
0.00040529089
0.00018562789
6.488449e-05
2.1056275e-05
1.7154349e-05
4.6295907e-05
3.6138175e-05
1.7438031e-05
2.0449223e-05
8.8653069e-05
0.00030609056
0.00058494217
0.00082331309
0.0010168404
0.001178875
0.0012107593
0.0010424426
0.00073338819
0.00059612354
0.0017728626
0.0021761486
0.0018030727
0.0013846695
0.0009770542
0.00090287472
0.00089501645
0.00082367609
0.00063577043
0.00037682668
0.00017377578
6.0012163e-05
2.0203125e-05
2.068886e-05
0.00029464978
4.6662187e-05
1.6153688e-05
1.9246417e-05