/*--------------------------------*- C++ -*----------------------------------*\
| =========                 |                                                 |
| \\      /  F ield         | OpenFOAM: The Open Source CFD Toolbox           |
|  \\    /   O peration     | Version:  2406                                  |
|   \\  /    A nd           | Website:  www.openfoam.com                      |
|    \\/     M anipulation  |                                                 |
\*---------------------------------------------------------------------------*/
FoamFile
{
    version     2.0;
    format      ascii;
    arch        "LSB;label=32;scalar=64";
    class       volScalarField;
    location    "850";
    object      k;
}
// * * * * * * * * * * * * * * * * * * * * * * * * * * * * * * * * * * * * * //

dimensions      [0 2 -2 0 0 0 0];

internalField   nonuniform List<scalar> 
150387
(
0.00050110306
0.00034432619
0.00034279024
0.00035941199
0.00039447659
0.00046527688
0.00052884227
0.00058874767
0.00049214605
0.00031015275
0.0003025603
0.00031250429
0.00032657339
0.00033933037
0.00035306651
0.00036869806
0.0003889534
0.00042369231
0.00046965272
0.00048108936
0.00046537047
0.00028964089
0.00030507935
0.0003671573
0.00043718038
0.00048126633
0.00049603446
0.00049283696
0.00047853693
0.00045509892
0.00043501414
0.00044395055
0.00047211716
0.00051501899
0.00051762998
0.00044539982
0.0004170018
0.00051299951
0.00031553795
0.00038397197
0.0005049697
0.00060205587
0.00066450585
0.00069787369
0.00070347912
0.00068543678
0.00064962454
0.00060727129
0.00056244287
0.00051332501
0.0005031886
0.0005321207
0.00058059297
0.00057103544
0.0004504281
0.0003797734
0.00046340321
0.00032326736
0.00045597206
0.00060778041
0.00071852231
0.00079186967
0.00083662184
0.00085837348
0.00086000825
0.00084253505
0.00080869931
0.00075422109
0.00069460999
0.0006405839
0.00057921798
0.00056576537
0.00059818597
0.00064464067
0.00060189514
0.00043545559
0.00033072499
0.00035824767
0.00049182349
0.00064796857
0.00075701346
0.0008285076
0.00087048305
0.00088989707
0.00089352751
0.00088664718
0.00087198139
0.00085020082
0.0008233431
0.00077671816
0.00072687301
0.0006849979
0.00062890321
0.0006273472
0.00066364721
0.00069171979
0.0005959402
0.00038173391
0.00034385117
0.00037426545
0.00049811068
0.0006519756
0.00074775138
0.00080017523
0.00082397992
0.00083016176
0.00082553382
0.00081484101
0.00080043356
0.00078568562
0.00077817227
0.00077810767
0.00076975712
0.00073890993
0.00071744244
0.00070301835
0.0006685585
0.00068449392
0.00072500493
0.00070749434
0.00053756282
0.0003466424
0.00036572565
0.00047894246
0.00047504081
0.00062311355
0.0007080708
0.00073835565
0.0007420857
0.00074741847
0.0007546785
0.00074815771
0.00072553095
0.00069375642
0.00066659529
0.00065285633
0.0006529451
0.00066548337
0.00067830223
0.00068043839
0.00069339288
0.00069858555
0.00070803981
0.00074248791
0.00076698985
0.0006737948
0.000440018
0.00030895088
0.00045788197
0.0005741065
0.00065459413
0.00066684138
0.00066428989
0.00068724367
0.00071937672
0.00072906125
0.00069844314
0.00065079732
0.00061332562
0.00057878981
0.0005512059
0.00054988481
0.00056556263
0.00058800877
0.00060688544
0.00063509348
0.00067852108
0.00071407297
0.00075457223
0.00079802546
0.00075812702
0.0005704515
0.00033282898
0.0003896832
0.00051170384
0.00059476633
0.00060357135
0.00060371785
0.00063411003
0.00069159047
0.00073775386
0.0007010964
0.0006339335
0.00058354589
0.00049665823
0.00037719124
0.00029945813
0.00028923656
0.00034227084
0.0004464275
0.00053509799
0.00057575272
0.0006250047
0.00069382031
0.00075591778
0.00081414692
0.0008084473
0.00066951568
0.00040458089
0.0003387561
0.00053142614
0.00053436343
0.00054438793
0.00054786503
0.00058434136
0.00066717967
0.00074364845
0.00072183604
0.00063923372
0.00058542596
0.00046715472
0.0002586405
0.00013620043
9.6043753e-05
9.1285638e-05
0.00010705807
0.00018804173
0.00036656964
0.00051148214
0.00057576328
0.00065365604
0.00074355807
0.00082083536
0.00083840046
0.00073283039
0.00049739943
0.00033324427
0.00051503725
0.00049610115
0.00048396018
0.00052617686
0.0006202074
0.00072063571
0.00074257836
0.00068630296
0.00061056748
0.00052787628
0.00027714426
0.00010827143
6.6601312e-05
5.760945e-05
5.7423908e-05
5.8931403e-05
8.1312335e-05
0.00019304948
0.0004033583
0.00052996687
0.00061226613
0.00072214149
0.00082177682
0.00085452933
0.00076959707
0.00056397813
0.00033559532
0.00056603161
0.00050067593
0.0004277832
0.00045715485
0.00054792961
0.00066345779
0.00074359993
0.00073718619
0.00066997056
0.00059684697
0.00043414618
0.00017306362
7.6217148e-05
5.466682e-05
5.2665451e-05
4.556876e-05
4.8203303e-05
5.8787924e-05
0.0001136345
0.00030419436
0.00048474295
0.00057876419
0.00070044017
0.00082044674
0.0008612513
0.00078718105
0.00059897447
0.0003515757
0.00044270632
0.00044806372
0.00038968021
0.00045795482
0.0005739366
0.00069346589
0.00076338135
0.00073402564
0.00067040652
0.00057795249
0.00037175934
0.00014455832
7.1572064e-05
5.8057933e-05
0.00011834421
3.6311288e-05
4.431615e-05
5.3691288e-05
8.9030326e-05
0.00024985496
0.00045115314
0.00055629084
0.00068901638
0.00081929022
0.0008593496
0.00078105833
0.00060270155
0.00036774335
0.00041378524
0.00040475399
0.00036592707
0.00046395572
0.00058701162
0.00072136162
0.00076858018
0.00073042455
0.00068295658
0.00056509775
0.00036990696
0.00015100208
7.3574457e-05
6.260877e-05
7.0290771e-05
4.9909812e-05
4.970147e-05
5.7562293e-05
9.5198323e-05
0.00024374328
0.00044576903
0.00055232767
0.00069025131
0.00081355062
0.00083635988
0.00075241732
0.00058580356
0.00037811644
0.00043749023
0.00038152851
0.00034683613
0.00045971114
0.00059339575
0.00072991963
0.0007655674
0.00073712319
0.00070180827
0.00057753224
0.00041928403
0.00020123869
9.2281542e-05
6.7283706e-05
5.7512302e-05
5.4147282e-05
5.7673592e-05
7.1750591e-05
0.00013532101
0.00029872392
0.00047088824
0.00056822663
0.00070697562
0.00080144581
0.0008024387
0.00072173981
0.00055138651
0.00038543346
0.00049915772
0.00040126863
0.00033101636
0.00044577216
0.00058934417
0.00072042064
0.00075908094
0.00074862267
0.00073671481
0.00060616609
0.00049474487
0.00030666286
0.00014812357
8.9398174e-05
7.0777053e-05
6.906602e-05
8.0986426e-05
0.00011890012
0.00022024236
0.00039096217
0.00050872037
0.00060608528
0.00072829513
0.00079036839
0.00077999901
0.00068968387
0.00050486811
0.00037991858
0.00054272149
0.00050096048
0.00031626361
0.00041658866
0.00056877879
0.00069618185
0.00074122143
0.00075153126
0.00077263172
0.00065656726
0.000556609
0.00045364773
0.00029240543
0.00017659503
0.00013238904
0.00013321952
0.00016427712
0.00023453992
0.0003544376
0.00047641706
0.00055257108
0.00065916689
0.00075268969
0.00079535752
0.00076978599
0.00064084239
0.00044841485
0.00036997758
0.00031025508
0.00036909832
0.00052743607
0.00066010992
0.00071315198
0.00073225798
0.00078558627
0.0007372766
0.00061091432
0.00054803785
0.00047578087
0.00037322865
0.00030155218
0.00029614411
0.00033236868
0.00039877722
0.00047645104
0.00053988433
0.00061207009
0.00072922179
0.00080482419
0.00081516568
0.00072636342
0.00054899558
0.00040526671
0.00036843161
0.0003373251
0.00031917799
0.00046614972
0.00061157554
0.00067603695
0.00069694027
0.00076343714
0.00079491668
0.00070261449
0.00061759998
0.00057202252
0.00053214567
0.00049248642
0.0004759212
0.00049085887
0.00052246189
0.00056479933
0.00063056121
0.00074487807
0.00082458617
0.00083834577
0.00076448499
0.0006126456
0.00045396228
0.00038249885
0.00043094527
0.00029111889
0.00038558873
0.00054537404
0.00062884415
0.00065063002
0.00070793425
0.00079002029
0.00077441606
0.00071772704
0.00067386148
0.0006436543
0.00063177435
0.00063153858
0.00064313375
0.00067932352
0.00074088823
0.0008087185
0.00084721825
0.00083524847
0.0007599782
0.00063069973
0.00048823718
0.00039853747
0.00037146262
0.00032624098
0.00032003409
0.00045287093
0.00056606559
0.00060015833
0.00063248493
0.0007284223
0.00077858282
0.00075908294
0.00074547205
0.00073810074
0.00073841494
0.0007542373
0.0007780064
0.00080532747
0.00082505278
0.00082536819
0.00079410275
0.00072441884
0.00062119544
0.00050172309
0.00040630414
0.00035878198
0.00045885328
0.00033760706
0.00034494308
0.0004782832
0.00054207848
0.0005577662
0.00062503017
0.00071422405
0.00073747815
0.00073750305
0.0007560266
0.00077774172
0.00078980017
0.00079068307
0.00078583718
0.00076978536
0.00073563484
0.00067937595
0.00060211247
0.0005062862
0.00040292657
0.00034726102
0.00037516766
0.00030286939
0.00037310523
0.00046247744
0.00049104288
0.00051679786
0.00059204641
0.00065613509
0.0006735458
0.00068805145
0.00071226046
0.00073301487
0.00072972159
0.00071000991
0.00067577106
0.00062555592
0.00055671505
0.00046321398
0.00036424401
0.00031478093
0.00032334691
0.00034023475
0.00037283783
0.00042622855
0.00044287238
0.00046512419
0.00051847639
0.00055960224
0.00057781571
0.0005911414
0.0006033051
0.00059763608
0.00056782622
0.00052082385
0.0004549728
0.00037775405
0.00032774024
0.00031701045
0.00036209374
0.00037515667
0.00038063313
0.00039805713
0.00040095095
0.00040654752
0.00041797025
0.0004332983
0.00044389005
0.00044330184
0.00042554985
0.00038759855
0.00034818808
0.0003196962
0.00030569685
0.00031287542
0.00040309025
0.00040666085
0.00038330499
0.00036586721
0.00036586269
0.00035738248
0.00034641167
0.0003345103
0.0003240734
0.00031836004
0.00031999832
0.00032088105
0.00041398075
0.00050249279
0.00044617364
0.00041015514
0.00039215756
0.00045297543
0.00052760616
0.0004744916
0.00050381285
0.00050955863
0.0005026043
0.00053516373
0.00057977866
0.00064785271
0.00071068999
0.00073823202
0.00040865975
0.00042908059
0.00046494916
0.00049804733
0.00052360626
0.00054186524
0.00055973104
0.00058721547
0.00062843082
0.0006722813
0.00068231602
0.00067868602
0.00061813453
0.00067203062
0.00041036778
0.00046144019
0.00055011394
0.00063127876
0.00069423825
0.00073239202
0.00074449488
0.00073157417
0.00070126253
0.00066728862
0.00064854587
0.00066173512
0.00069434406
0.00072219233
0.00070812013
0.00061942944
0.00055437957
0.00043769829
0.00054736921
0.00068186539
0.00080785059
0.0009032717
0.00096737777
0.0010034363
0.0010130741
0.00099385334
0.00094675168
0.0008770511
0.00079898338
0.00073620095
0.00071343468
0.00073379658
0.00077105722
0.00073357582
0.0006296581
0.00051885547
0.00047673693
0.00061721143
0.00078869438
0.00093592952
0.0010378919
0.0011033089
0.0011454175
0.0011709861
0.0011827416
0.0011792922
0.001152687
0.0010968834
0.0010122698
0.00091175728
0.00082167833
0.00077420539
0.00079234185
0.00081427934
0.00075798678
0.00061941544
0.00048492661
0.00053325304
0.00064381778
0.00082319066
0.00096613836
0.0010477158
0.0010877443
0.0011092778
0.001120862
0.0011235997
0.0011201101
0.0011162906
0.001117972
0.0011158285
0.0010929584
0.001038107
0.00095600568
0.00087079579
0.00083161074
0.00085162052
0.00085500111
0.00075648525
0.00058222729
0.00045442812
0.00062034592
0.00080212394
0.00093826616
0.00099464179
0.0010058059
0.0010092066
0.001011192
0.00099905723
0.00096705334
0.00092456072
0.00088792964
0.00087472887
0.00089458611
0.00093717689
0.00097390262
0.00097853169
0.0009426145
0.00089254809
0.0008850732
0.00091053288
0.00087321814
0.00070981579
0.00052665294
0.00044679826
0.0005880074
0.00076232437
0.00088836223
0.00092334026
0.00091194597
0.0009125068
0.00092923625
0.00092312168
0.0008680555
0.00077521019
0.00067620409
0.00059959861
0.00056206457
0.00057362494
0.00063504526
0.00073209889
0.00083110391
0.00089851761
0.0009145683
0.0009153279
0.0009442673
0.00095225285
0.00083369627
0.00062881012
0.00043060359
0.00070527188
0.00081674808
0.00085082823
0.00082925548
0.00083497401
0.00088317181
0.00090573164
0.00084274646
0.00070300237
0.00054003648
0.00039983024
0.00030489903
0.00025987452
0.00026887004
0.00033226706
0.00044734287
0.00059479343
0.00074336183
0.00085507019
0.00091428528
0.00096255074
0.0010011745
0.00093126275
0.0007304123
0.00049936897
0.00046617293
0.00076400773
0.00074124319
0.00079406775
0.00076844521
0.0007673647
0.00084175549
0.0009114908
0.00087241512
0.00071081277
0.00049809054
0.00030751339
0.00017229126
0.0001001882
7.2693999e-05
7.7544009e-05
0.0001155936
0.00021230997
0.00036609241
0.00055088334
0.00073343047
0.00086952154
0.00096095264
0.0010291402
0.0010003874
0.00082143663
0.00055487811
0.00044735547
0.00072461265
0.00074705489
0.00072897088
0.00070440029
0.00077818028
0.00089739053
0.00092464241
0.00079270591
0.00055873873
0.00031923917
0.00014491832
5.9018953e-05
3.9202801e-05
3.7636949e-05
3.7435696e-05
3.9491108e-05
7.7593156e-05
0.00019570468
0.00038114496
0.00059704191
0.00079602835
0.00094123989
0.0010428825
0.00104625
0.00089120564
0.0006082027
0.00043285021
0.00071819897
0.00069478265
0.00065964886
0.00069369898
0.00083348893
0.00094424321
0.00090383959
0.00070615157
0.00043323852
0.00019383756
6.8113621e-05
3.6234959e-05
3.6890824e-05
3.7251139e-05
3.6338065e-05
3.6290082e-05
3.9044406e-05
0.000100394
0.00026197105
0.00048351562
0.00072005967
0.00091386502
0.0010490279
0.0010754867
0.00093711349
0.00065482241
0.00043876138
0.00053381115
0.00067818755
0.00062828554
0.00062416411
0.00072141425
0.00088929913
0.00096492659
0.00087609347
0.00064332601
0.00034777849
0.00012849928
4.9206635e-05
3.592965e-05
3.8058003e-05
4.7164156e-05
4.0179694e-05
3.5575112e-05
3.6611855e-05
6.1575413e-05
0.00019366897
0.00040969047
0.00066387225
0.00089226621
0.0010542706
0.0010918958
0.00095870214
0.00067815989
0.00045253646
0.00052589322
0.00064863242
0.00057126601
0.00061798332
0.00075576395
0.00092590771
0.00096857458
0.00086160194
0.00061630306
0.00031352516
0.00011332498
4.9627364e-05
3.6249312e-05
4.1080568e-05
8.6592967e-05
2.7188956e-05
3.5261624e-05
3.6133833e-05
5.5258634e-05
0.0001716456
0.00037989978
0.00064027306
0.00088960122
0.0010647158
0.0010964144
0.00095363238
0.00066884487
0.00042454966
0.00053711002
0.00059037836
0.00053036454
0.00062336499
0.00077845843
0.00093975105
0.00096565095
0.00086806079
0.00063115338
0.00033352169
0.00013298386
5.6267664e-05
3.7942471e-05
3.715585e-05
5.1078606e-05
3.5004701e-05
3.469775e-05
3.634166e-05
6.7898952e-05
0.00018851477
0.0003942209
0.00065566013
0.00091224164
0.0010791541
0.001086026
0.00092131636
0.00063172192
0.00040693919
0.00054922514
0.00056280722
0.00049719229
0.00062228821
0.00078251922
0.00093230564
0.00096071792
0.00089248189
0.00068730057
0.00040177813
0.00018601867
7.9948747e-05
4.6442752e-05
3.4454591e-05
3.2961681e-05
3.3653916e-05
3.5502344e-05
4.7412457e-05
0.00010677944
0.00024179963
0.00045071831
0.00071069645
0.00095640796
0.0010894854
0.0010545536
0.00085936574
0.00056663444
0.00038918042
0.00056639711
0.00058797826
0.00046973165
0.00060626028
0.00076678403
0.00090712702
0.00094941943
0.00092266908
0.00077202272
0.00051510025
0.00028619241
0.00014359724
7.7796781e-05
5.3418921e-05
4.4664236e-05
4.4643558e-05
5.6770191e-05
9.4531066e-05
0.00018309233
0.00033317462
0.00054786342
0.00079838958
0.0010078191
0.0010830335
0.00099495136
0.00076913618
0.00049625764
0.00038233221
0.00051048648
0.000440395
0.00057462214
0.0007315394
0.00086782675
0.00092328225
0.00094070714
0.00086311894
0.000663472
0.00043857366
0.00026802375
0.00016235353
0.00011364026
9.8006985e-05
0.00010151913
0.00012866263
0.00019029802
0.00029970535
0.00046463584
0.00068004565
0.0009018678
0.0010463403
0.001046664
0.00089981194
0.00065215411
0.00043476775
0.00038343792
0.00041292767
0.00052891853
0.00067844311
0.0008143121
0.00087752337
0.00092926312
0.00092824231
0.00081704309
0.00063419705
0.00046016531
0.0003252847
0.00024194166
0.00020963242
0.00021636806
0.00025717337
0.00033754297
0.00046491582
0.0006385533
0.00083498581
0.00099461805
0.0010477591
0.0009657761
0.00077054907
0.00053714272
0.00040848961
0.00042977536
0.00037645838
0.00047523724
0.00060842647
0.00074638507
0.00081435151
0.00088005801
0.00093769791
0.00092514529
0.00082685632
0.00069630427
0.00057324474
0.00047753094
0.00042501507
0.00042359019
0.00047123344
0.00056128127
0.00069085636
0.00084168996
0.0009732881
0.001032411
0.00098413087
0.00083100065
0.00061792231
0.00044693315
0.00038941343
0.00051898277
0.0003958552
0.00042011703
0.00052622411
0.00066151362
0.00073762767
0.00079926761
0.00088251614
0.00094527155
0.00094327159
0.00089266646
0.00082575459
0.0007652022
0.00072749795
0.00072425883
0.00076072951
0.00082960744
0.00091541274
0.00099039105
0.0010196064
0.00097427037
0.00084782565
0.0006651082
0.00048997105
0.00041165271
0.00040974729
0.00039981981
0.00044991831
0.00056163397
0.00064850702
0.00070470873
0.00077858049
0.00087423501
0.00094079885
0.00096598536
0.000964408
0.00095243764
0.00094386082
0.00094703266
0.00096362033
0.00098893756
0.0010072077
0.00099756547
0.00094082932
0.00082842374
0.00067217028
0.00051047211
0.00040641351
0.00038396523
0.00038772948
0.00046783997
0.0005470988
0.00060341253
0.00065643508
0.00074149204
0.00083550821
0.00090684116
0.00095201274
0.00097726461
0.00098992746
0.00099554211
0.00099447317
0.00098182386
0.00094822625
0.000883076
0.00078047659
0.0006462547
0.00050600683
0.00040470104
0.0003693156
0.00043479622
0.00040678137
0.00046220658
0.00050838116
0.00054523793
0.00059035648
0.00067147391
0.00075365474
0.00081979042
0.00086510203
0.00088845261
0.00089281219
0.00087817764
0.00084128396
0.0007785082
0.00068847452
0.00057794812
0.00046848559
0.00039371707
0.00035874714
0.00042614158
0.00042613991
0.00045460192
0.00046971089
0.00047604667
0.00050842403
0.00056627699
0.00062472618
0.00067476647
0.00070176918
0.00070556644
0.0006851572
0.00064126348
0.00057845367
0.00050531682
0.00043832818
0.0003925199
0.00034466374
0.00040880553
0.00048670332
0.00044050158
0.0004535863
0.00042512289
0.00042604837
0.00044236968
0.00046985041
0.00048705897
0.00048839915
0.00047210741
0.00044078679
0.00040709025
0.0003806069
0.00034368592
0.00035473931
0.00053025558
0.00048188954
0.00040591366
0.00036247314
0.00035732167
0.00036042633
0.00036233323
0.00035786036
0.00035572453
0.00037061353
0.00042208849
0.00042011376
0.00064300611
0.00054501408
0.00051492989
0.00050052379
0.00049615626
0.00071513292
0.00078961425
0.00080053294
0.00078481194
0.00080315985
0.00082067022
0.00084242475
0.00082861492
0.0008353655
0.00051191916
0.00059382675
0.00064652215
0.00070101191
0.00075414025
0.00081069585
0.00087203478
0.00093770208
0.00098826626
0.0010049133
0.00095187444
0.00087491286
0.00071170143
0.00071806386
0.00044713961
0.0005421202
0.00064876686
0.00073944183
0.00081006718
0.00085727721
0.00088062734
0.0008840622
0.00088251981
0.00089496822
0.00093482968
0.00099837506
0.0010448931
0.0010434596
0.00095947387
0.00075234479
0.00064519742
0.00048140289
0.00060520603
0.0007705793
0.00092583907
0.0010431668
0.0011213708
0.0011647983
0.0011772365
0.0011572378
0.0011096846
0.0010466747
0.0009921294
0.00097590961
0.0010114632
0.0010692454
0.0011012969
0.00098102912
0.00078878413
0.00058956665
0.00053598696
0.00070320713
0.00094005037
0.001139468
0.0012716408
0.0013476446
0.0013879203
0.0014066254
0.0014115135
0.0014015289
0.0013678342
0.0013034797
0.001211448
0.0011133312
0.0010505885
0.0010527162
0.0011161436
0.0011262067
0.0010056145
0.00076238947
0.00053211819
0.00061273153
0.00076654547
0.0010285017
0.0012368716
0.0013455078
0.0013810393
0.0013811822
0.0013680119
0.0013498022
0.0013325064
0.0013238585
0.001329673
0.001335693
0.0013177286
0.0012588847
0.0011719142
0.0011024953
0.001107619
0.0011641022
0.0011538374
0.00098252726
0.0006983599
0.00048469591
0.00072825247
0.0010187809
0.0012422132
0.0013240809
0.0013129583
0.0012736797
0.0012327744
0.0011857708
0.0011279958
0.0010694621
0.0010277469
0.0010239458
0.0010661355
0.0011369336
0.0011958881
0.0012050669
0.0011641739
0.0011302812
0.0011644251
0.0012150484
0.0011491334
0.00089513178
0.00059081975
0.00053454564
0.00064726032
0.00098831119
0.0012118586
0.0012684903
0.0012185084
0.0011597451
0.0011234248
0.0010785497
0.00099455703
0.00087921447
0.00076378557
0.00067803965
0.00064085324
0.00066806813
0.0007639518
0.00090641471
0.0010427937
0.0011195556
0.0011354871
0.0011614609
0.0012291466
0.0012432138
0.0010675388
0.00073420132
0.00049953378
0.00087478017
0.0011198291
0.0011997532
0.0011395477
0.0010750649
0.0010649576
0.0010522194
0.00096491648
0.00080170533
0.00061605905
0.00045827605
0.00035274895
0.00030264336
0.00031308661
0.00039287298
0.00054824475
0.0007529996
0.00094433783
0.0010655383
0.0011373993
0.0012223005
0.0012869798
0.0011873059
0.00087547425
0.00055376639
0.0005229051
0.0008272346
0.00098016716
0.0011398027
0.0010984043
0.0010161246
0.0010216531
0.0010586938
0.0010035827
0.00081988959
0.00057584203
0.00036029838
0.00021152274
0.00012877895
9.4974812e-05
9.9603008e-05
0.00014480984
0.00026361314
0.0004658205
0.00071173593
0.00092666401
0.0010753779
0.0011988594
0.0013028798
0.0012621717
0.00099198363
0.00061211752
0.00050851812
0.00081518031
0.0010514788
0.0010835373
0.00098043047
0.00096509064
0.0010460174
0.0010644465
0.00091781346
0.00064578133
0.00037143647
0.00018305325
8.2984303e-05
4.7351338e-05
4.171046e-05
4.1669812e-05
4.8298142e-05
0.00010014501
0.00025675886
0.00050173739
0.00076726634
0.0009865464
0.0011617009
0.0013038424
0.0013055167
0.0010741041
0.00066774653
0.00048265933
0.00083718919
0.0010365021
0.0009819926
0.00090613081
0.00098555967
0.0010881674
0.0010423661
0.00081383514
0.00049647284
0.00023821324
9.9750668e-05
4.5795685e-05
3.7642541e-05
3.7313219e-05
3.6182735e-05
3.663931e-05
4.2076229e-05
0.00013291734
0.00035196798
0.00063187945
0.00089801881
0.0011219166
0.0012994292
0.00132826
0.0011226523
0.00072369512
0.00047179087
0.00053992922
0.00087584962
0.00097562156
0.00089270364
0.00088811335
0.0010338453
0.0011117904
0.0010057362
0.00073235956
0.00040456373
0.00017748194
7.4381184e-05
4.0374294e-05
3.8260154e-05
4.71138e-05
4.1075973e-05
3.5201265e-05
3.7371523e-05
8.1133077e-05
0.000266952
0.00054345555
0.00083358223
0.0010938627
0.0012979947
0.0013359669
0.0011380058
0.00074725131
0.00047473037
0.00054030359
0.00091345864
0.00089507011
0.00083390256
0.00090288827
0.0010756669
0.0011163525
0.00098046408
0.00069667488
0.00037656867
0.00016765679
7.2301019e-05
3.9804873e-05
3.9684629e-05
8.9502148e-05
3.1689788e-05
3.3989556e-05
3.7258769e-05
7.2532642e-05
0.00024276203
0.00050905269
0.000808219
0.0010927565
0.001305386
0.0013286039
0.0011169039
0.00072720484
0.000437016
0.00055107553
0.00082583774
0.00081710767
0.00080258386
0.00092358233
0.0010977628
0.0011139485
0.00098073366
0.00071299144
0.00040687538
0.00019427945
8.7204156e-05
4.2461014e-05
3.5820378e-05
5.4710196e-05
3.6012611e-05
3.30866e-05
3.8667758e-05
9.5508385e-05
0.00027029055
0.00052758127
0.00083082642
0.0011245321
0.0013173694
0.0013010547
0.0010598478
0.00067524579
0.00042529792
0.00056395558
0.00081843048
0.00074189975
0.00078274741
0.00093283073
0.001099812
0.0011125004
0.0010061267
0.00077604241
0.0004870893
0.00025950802
0.00013180431
6.5789622e-05
3.8346526e-05
3.2327022e-05
3.2527317e-05
3.4279131e-05
6.5302806e-05
0.00016032132
0.00034340996
0.00059887014
0.00090317654
0.0011806086
0.0013207023
0.0012441431
0.00096609267
0.00059422101
0.00040850611
0.00058454574
0.00085065286
0.0006819648
0.00075671672
0.00092263836
0.0010868597
0.0011101623
0.0010433254
0.00086964005
0.00061385283
0.00037412747
0.00021665949
0.00013027226
8.2256952e-05
5.9089933e-05
5.7961897e-05
8.3009752e-05
0.00014882552
0.00027050484
0.00046347296
0.00072284937
0.0010125111
0.00123725
0.0012961404
0.0011502134
0.00084471276
0.00051912067
0.00039917983
0.00077457713
0.00062587089
0.00071644952
0.00089086773
0.0010607296
0.0010987008
0.0010735677
0.0009711573
0.00077562337
0.00054549067
0.000359689
0.00024464438
0.00018531069
0.00015954372
0.00016294029
0.00020309023
0.00028820941
0.00042920777
0.00063337132
0.00088573052
0.0011273013
0.0012637413
0.0012268648
0.001016856
0.00070566115
0.0004648116
0.00041541423
0.00057718986
0.00066039752
0.00083559272
0.0010185409
0.0010725842
0.0010791263
0.0010485394
0.00094009384
0.00076104892
0.00057447085
0.00043080101
0.00034774966
0.00031749034
0.00032886259
0.00038226606
0.0004842171
0.00063916576
0.000839697
0.0010508165
0.0012048131
0.0012316607
0.0011045534
0.0008570881
0.00058704004
0.00045697827
0.00049094991
0.0004991389
0.00058999173
0.00075338483
0.00095403239
0.0010287414
0.00105183
0.0010721393
0.0010565296
0.00096846107
0.0008343588
0.00070033718
0.00060226192
0.00055784405
0.00056873764
0.00063011565
0.00073568881
0.0008788839
0.0010360045
0.0011629859
0.0012056905
0.0011292672
0.00094123238
0.00069569866
0.00050442601
0.00043178935
0.00060293577
0.00048009082
0.00050644577
0.00064567405
0.00085752426
0.00096331
0.00099557837
0.0010329082
0.0010822695
0.0010912698
0.0010470407
0.00097462589
0.00090580678
0.00086583475
0.00086751321
0.00091163305
0.0009877715
0.0010781625
0.0011536109
0.0011774306
0.001119856
0.0009746358
0.00076788127
0.00056543661
0.00047133528
0.00046912974
0.0004392429
0.00053458448
0.00072468056
0.00086641709
0.00091734108
0.0009484971
0.0010144299
0.0010869791
0.0011251415
0.001127388
0.001110384
0.0010948147
0.001093935
0.001110871
0.0011386849
0.0011597404
0.0011516995
0.0010933403
0.00097378421
0.00080045886
0.00060890782
0.00047407111
0.00043910484
0.00042445519
0.00057982721
0.00073136604
0.00081418538
0.00084523953
0.00088786203
0.00097291383
0.001056497
0.0011166483
0.0011484142
0.0011610174
0.0011644419
0.0011620131
0.0011496144
0.0011170235
0.001051861
0.00094423676
0.00079328117
0.00061974794
0.00048274263
0.00042211133
0.00049053958
0.00046054214
0.00058887588
0.00068204353
0.00073560249
0.00074864174
0.00080264168
0.00088264899
0.00096453294
0.0010279334
0.0010634107
0.0010737505
0.0010617331
0.0010257027
0.00096160571
0.0008646356
0.0007357446
0.00059083645
0.00047654547
0.00042200525
0.00046603017
0.00048914873
0.00056095633
0.00062598642
0.00063350582
0.00064263335
0.00068022222
0.00073544525
0.00079918926
0.0008449755
0.00086203015
0.0008468299
0.00080072626
0.0007291338
0.00063812016
0.00054311019
0.00046081349
0.0003985397
0.00045266508
0.00054545154
0.00052795242
0.00057765463
0.00055668315
0.00054649866
0.0005399368
0.00055474411
0.00057308295
0.00057918127
0.00056596897
0.00053278921
0.00049474494
0.00045388497
0.0004175179
0.00040808883
0.00060691649
0.00057529144
0.00052632078
0.00046514176
0.00043453082
0.00042971762
0.00043015042
0.00042632267
0.00042255091
0.00043169791
0.00046557003
0.00046147958
0.00076405537
0.00065942128
0.0006000596
0.00055133083
0.00051821976
0.0010546626
0.0011046235
0.0011005827
0.0010759199
0.001066611
0.0010498281
0.0010210708
0.00091791901
0.00090111108
0.00083208544
0.00093478815
0.0010085425
0.0010916517
0.0011751983
0.001262172
0.0013429618
0.0014057304
0.0014163915
0.0013658795
0.0012242089
0.0010596169
0.00077758367
0.00077206105
0.00065065734
0.00077501842
0.00087346772
0.00096535038
0.0010442963
0.0011045859
0.0011463455
0.0011781166
0.0012198517
0.0012853802
0.0013692515
0.0014468617
0.0014640137
0.0013955004
0.0012123887
0.00088105581
0.00071276688
0.00054642497
0.00071028496
0.00087414623
0.0010386851
0.0011706893
0.0012609946
0.0013119149
0.001327604
0.0013129123
0.0012822614
0.0012558553
0.0012606776
0.0013155319
0.0014079327
0.0014804295
0.001470168
0.0012450459
0.00094026081
0.00062920921
0.00055990728
0.00076966099
0.0010460916
0.0012926562
0.0014667448
0.0015678433
0.0016158044
0.0016299932
0.0016242769
0.001599259
0.0015489985
0.001477489
0.0013961587
0.0013360053
0.0013379807
0.0014097758
0.0015091535
0.0014826909
0.0012650591
0.00088662584
0.00057081456
0.00063274626
0.00084699649
0.0011903586
0.0014769778
0.001638874
0.0016934715
0.0016847664
0.0016483522
0.0016043943
0.0015654511
0.0015416332
0.0015353192
0.0015303655
0.0015044578
0.0014481909
0.0013873661
0.0013755257
0.001452392
0.0015422596
0.0014882397
0.0012008805
0.00078090139
0.00050655068
0.0008201889
0.0012284657
0.0015514704
0.0016870738
0.0016770676
0.0016016889
0.0015116073
0.0014201165
0.0013296532
0.0012505056
0.0011983285
0.0011942153
0.0012430552
0.0013218781
0.0013860599
0.0014021123
0.0013867617
0.0014116415
0.0015128221
0.001576611
0.0014360816
0.0010457767
0.00062423212
0.00053980173
0.00068477794
0.0012059712
0.0015500266
0.0016653781
0.0016006874
0.0014803829
0.0013741217
0.0012738225
0.0011537581
0.0010167206
0.00088858015
0.00079664757
0.00076017548
0.00079774129
0.00091428253
0.0010811046
0.0012351906
0.0013255579
0.0013745219
0.0014643648
0.0015809727
0.0015655172
0.001273709
0.00080530256
0.00050329893
0.0010319377
0.0014386911
0.0016061176
0.0015327747
0.0013893762
0.0012941698
0.0012221991
0.0011026203
0.00092197663
0.00072389625
0.00055615797
0.00044354132
0.00039128855
0.00040522077
0.00049970982
0.00068465902
0.00092454935
0.0011406571
0.0012838143
0.0014031627
0.0015477183
0.0016174905
0.0014275319
0.00097665369
0.00056159045
0.00052318228
0.00086968954
0.0012228901
0.0015332154
0.0015152243
0.001347044
0.0012491762
0.0012201528
0.0011351641
0.00093719246
0.00068090197
0.00045066163
0.00028843884
0.00019410948
0.00015294568
0.00015652024
0.00021334236
0.00035753432
0.0006020327
0.00088973647
0.0011320918
0.0013168517
0.0014970788
0.0016254865
0.0015176734
0.0011133751
0.00062803803
0.00050416609
0.00088040555
0.0013782599
0.0015231095
0.0013596344
0.0012161483
0.0012131865
0.0011977744
0.0010370874
0.00075300076
0.00046465388
0.00025714941
0.00013749524
8.081342e-05
6.1671856e-05
6.0905494e-05
7.9405554e-05
0.00015742897
0.00035607799
0.00065458392
0.00095984002
0.0012125603
0.0014383421
0.0016120304
0.0015624665
0.0012056988
0.00068919189
0.00047934907
0.00093868543
0.0014325907
0.0014284338
0.0012179774
0.0011748057
0.0012309243
0.0011683404
0.00092564331
0.00059752316
0.00032601695
0.00016223546
7.9749085e-05
5.077544e-05
4.4607048e-05
4.2566216e-05
4.4965502e-05
7.1097917e-05
0.00020482839
0.0004813349
0.00081192628
0.0011138254
0.0013836058
0.0015920529
0.0015769751
0.0012554023
0.00074848683
0.00047379805
0.00054421832
0.0010672501
0.0014177431
0.0013120286
0.0011326793
0.0011932639
0.0012522408
0.0011286237
0.00083963588
0.0005080712
0.00026519796
0.00012671425
6.0334277e-05
4.3664551e-05