/*--------------------------------*- C++ -*----------------------------------*\
| =========                 |                                                 |
| \\      /  F ield         | OpenFOAM: The Open Source CFD Toolbox           |
|  \\    /   O peration     | Version:  2406                                  |
|   \\  /    A nd           | Website:  www.openfoam.com                      |
|    \\/     M anipulation  |                                                 |
\*---------------------------------------------------------------------------*/
FoamFile
{
    version     2.0;
    format      ascii;
    arch        "LSB;label=32;scalar=64";
    class       volScalarField;
    location    "850";
    object      nut;
}
// * * * * * * * * * * * * * * * * * * * * * * * * * * * * * * * * * * * * * //

dimensions      [0 2 -1 0 0 0 0];

internalField   nonuniform List<scalar> 
150387
(
9.6245236e-06
1.1138525e-05
1.2069942e-05
1.3275389e-05
1.4737059e-05
1.3460149e-05
1.0192312e-05
7.8117083e-06
3.8220584e-06
9.4221949e-06
1.0935574e-05
1.2336694e-05
1.3685526e-05
1.4582992e-05
1.5182139e-05
1.5805083e-05
1.6564349e-05
1.7385955e-05
1.8707694e-05
1.6699316e-05
6.6520929e-06
8.4704252e-06
1.0553183e-05
1.5065399e-05
1.9744685e-05
2.2389231e-05
2.3009899e-05
2.2554446e-05
2.1636358e-05
2.0212066e-05
1.891298e-05
1.9305853e-05
2.0438609e-05
2.1956861e-05
2.0307084e-05
1.4006606e-05
5.9268907e-06
3.6457122e-06
9.5243809e-06
1.5067614e-05
2.2954442e-05
2.8226355e-05
3.0508006e-05
3.0578302e-05
2.9131825e-05
2.7365198e-05
2.5717782e-05
2.4378451e-05
2.3202476e-05
2.1345683e-05
2.1237871e-05
2.2835546e-05
2.5414962e-05
2.4178398e-05
1.5937993e-05
6.4998923e-06
2.8822127e-06
9.5948884e-06
1.8942422e-05
2.861459e-05
3.3923186e-05
3.5914738e-05
3.5762392e-05
3.4013395e-05
3.143564e-05
2.8931681e-05
2.6894595e-05
2.507332e-05
2.3787081e-05
2.336271e-05
2.2256389e-05
2.2816122e-05
2.5162478e-05
2.8377294e-05
2.6090089e-05
1.4617963e-05
8.0674977e-06
1.0794316e-05
2.0811671e-05
3.0638616e-05
3.5483444e-05
3.6872934e-05
3.6000262e-05
3.3515802e-05
3.0452564e-05
2.7466002e-05
2.4892326e-05
2.3137968e-05
2.2321983e-05
2.1695823e-05
2.1524504e-05
2.2400936e-05
2.2532832e-05
2.4550757e-05
2.7609489e-05
3.0528971e-05
2.5597041e-05
1.265465e-05
6.4043185e-06
1.0137855e-05
2.0226731e-05
3.0566898e-05
3.4958707e-05
3.5383456e-05
3.3682815e-05
3.0502461e-05
2.6756061e-05
2.3385775e-05
2.0668904e-05
1.8625839e-05
1.7473675e-05
1.7217295e-05
1.7287473e-05
1.7421418e-05
1.8790619e-05
2.1358784e-05
2.3184383e-05
2.6500714e-05
3.0368906e-05
3.1342657e-05
2.2266756e-05
1.0082886e-05
5.4302587e-06
3.7543703e-06
1.7357123e-05
2.8539987e-05
3.3101272e-05
3.2693211e-05
3.0132781e-05
2.7063342e-05
2.3674198e-05
2.0114536e-05
1.6934891e-05
1.4474485e-05
1.2865512e-05
1.1906447e-05
1.1681203e-05
1.2142908e-05
1.2962666e-05
1.4203686e-05
1.6801684e-05
2.0418282e-05
2.4694376e-05
2.9052301e-05
3.2776451e-05
2.9752637e-05
1.6566631e-05
8.8456503e-06
1.4321681e-05
2.5101656e-05
3.0543354e-05
2.9757067e-05
2.7222949e-05
2.5359115e-05
2.272827e-05
1.9138009e-05
1.5272942e-05
1.2458217e-05
1.1164534e-05
1.0573252e-05
1.0120125e-05
9.860531e-06
9.8570417e-06
1.0116904e-05
1.0752137e-05
1.258187e-05
1.6315729e-05
2.148706e-05
2.7216087e-05
3.2301917e-05
3.2994482e-05
2.4379095e-05
1.1208669e-05
9.3554182e-06
1.9550502e-05
2.71773e-05
2.7379134e-05
2.5578842e-05
2.4359319e-05
2.2739271e-05
2.0112403e-05
1.5247545e-05
1.1611066e-05
1.0370013e-05
9.5114076e-06
7.738243e-06
6.4257526e-06
6.3315946e-06
7.3269381e-06
8.8938291e-06
9.7551701e-06
1.0347679e-05
1.2778182e-05
1.7925232e-05
2.4605682e-05
3.1019158e-05
3.395059e-05
2.9344095e-05
1.5537845e-05
1.0204744e-05
1.0296074e-05
2.2455505e-05
2.4778585e-05
2.4208957e-05
2.3868445e-05
2.3940329e-05
2.2162192e-05
1.686699e-05
1.1856573e-05
1.0074825e-05
9.0441169e-06
5.6663154e-06
3.4116123e-06
2.8601332e-06
2.9345057e-06
3.2198919e-06
4.6578138e-06
7.7993618e-06
9.6563249e-06
1.0903216e-05
1.489627e-05
2.1828299e-05
2.9389772e-05
3.384791e-05
3.1742047e-05
2.1052801e-05
1.0604069e-05
1.3642651e-05
2.1689856e-05
2.1790094e-05
2.2923338e-05
2.4660835e-05
2.4131301e-05
1.978798e-05
1.4268506e-05
1.0494401e-05
9.5543058e-06
6.1280548e-06
3.0473163e-06
2.6498791e-06
2.6969645e-06
2.6997176e-06
2.7268172e-06
2.727856e-06
4.7657468e-06
8.4388122e-06
1.0069351e-05
1.2876608e-05
1.9503262e-05
2.7791171e-05
3.3283758e-05
3.268835e-05
2.4875224e-05
1.1730699e-05
8.3557504e-06
1.8901721e-05
1.8557576e-05
2.0714525e-05
2.4063791e-05
2.5440359e-05
2.3363847e-05
1.8332098e-05
1.3088427e-05
1.0095116e-05
8.5266075e-06
4.4137266e-06
2.8343637e-06
2.6250959e-06
2.524115e-06
2.5171446e-06
2.8090145e-06
2.7638547e-06
3.3387292e-06
6.9727041e-06
9.5386137e-06
1.1705235e-05
1.7959845e-05
2.6688035e-05
3.2748392e-05
3.2984202e-05
2.6899162e-05
1.3015442e-05
1.0768198e-05
1.7010919e-05
1.7197579e-05
2.1033255e-05
2.5140212e-05
2.5816563e-05
2.325265e-05
1.7770527e-05
1.2796065e-05
9.9973695e-06
7.6533813e-06
3.878223e-06
2.8545468e-06
2.3067407e-06
2.5678737e-06
2.4198712e-06
2.7775153e-06
3.0718418e-06
3.0521288e-06
6.2597895e-06
9.1601422e-06
1.1103557e-05
1.7347968e-05
2.5998426e-05
3.1944993e-05
3.2689097e-05
2.7197995e-05
1.4199456e-05
9.7866379e-06
1.5021124e-05
1.6224366e-05
2.1616927e-05
2.5459288e-05
2.6876128e-05
2.3428095e-05
1.7881781e-05
1.3272603e-05
1.0152078e-05
7.6377922e-06
3.9235025e-06
2.8722548e-06
2.5267517e-06
2.9510984e-06
2.0081322e-06
2.8624085e-06
3.0585406e-06
3.2542057e-06
6.3156545e-06
8.9771826e-06
1.0985745e-05
1.7213138e-05
2.5338205e-05
3.0738013e-05
3.1670477e-05
2.6255701e-05
1.5003915e-05
9.7935066e-06
1.3393673e-05
1.5244326e-05
2.1636918e-05
2.5931475e-05
2.8071875e-05
2.4304201e-05
1.8996654e-05
1.4575967e-05
1.0612377e-05
8.4142874e-06
4.8087776e-06
3.0686973e-06
2.9166797e-06
2.8747527e-06
2.9169053e-06
2.9581456e-06
2.975459e-06
4.1319883e-06
7.0360111e-06
9.0780806e-06
1.1405134e-05
1.772393e-05
2.4978806e-05
2.9667856e-05
3.0691543e-05
2.4194359e-05
1.5489836e-05
4.5396216e-06
9.9413959e-06
1.399403e-05
2.1123654e-05
2.6450177e-05
2.9386004e-05
2.6023482e-05
2.1140903e-05
1.6897709e-05
1.1469023e-05
9.4929251e-06
6.6629769e-06
4.0351956e-06
3.2122878e-06
3.0240726e-06
3.0256489e-06
3.1276704e-06
3.7980414e-06
5.6767365e-06
8.1852277e-06
9.5814065e-06
1.2664016e-05
1.8905444e-05
2.5350582e-05
2.9717611e-05
2.9719648e-05
2.1530607e-05
1.3864093e-05
7.5429886e-06
7.8970208e-06
1.2558598e-05
1.9483939e-05
2.6428169e-05
3.0383317e-05
2.7910834e-05
2.3760333e-05
2.0100772e-05
1.3448719e-05
1.0376452e-05
8.9220423e-06
6.5552269e-06
4.7755147e-06
4.1400867e-06
4.1652954e-06
4.6472586e-06
5.8247986e-06
7.6771751e-06
9.1965467e-06
1.0682395e-05
1.4958057e-05
2.1086599e-05
2.7218042e-05
3.0968973e-05
2.7909588e-05
1.8744206e-05
1.3657809e-05
1.0825726e-05
1.629837e-05
2.5020724e-05
3.0266376e-05
2.9381231e-05
2.5915319e-05
2.3492228e-05
1.7717543e-05
1.2083743e-05
1.0168802e-05
9.1240659e-06
7.8648734e-06
7.034518e-06
6.9423996e-06
7.3885099e-06
8.315747e-06
9.3197825e-06
1.0437766e-05
1.2970654e-05
1.8933816e-05
2.5561186e-05
3.0845419e-05
3.0910483e-05
2.3869732e-05
1.6558884e-05
8.051541e-06
9.7188621e-06
1.2622021e-05
2.1843305e-05
2.9154893e-05
2.9844864e-05
2.7518227e-05
2.6230087e-05
2.3092023e-05
1.6649077e-05
1.2632938e-05
1.0888495e-05
9.9666707e-06
9.4743168e-06
9.4110852e-06
9.6801382e-06
1.0241874e-05
1.1283895e-05
1.369726e-05
1.9368849e-05
2.5848744e-05
3.0980426e-05
3.1869808e-05
2.6778415e-05
1.9193254e-05
1.2943772e-05
7.9848741e-06
9.805177e-06
1.6611704e-05
2.6374142e-05
2.9291165e-05
2.7891415e-05
2.763358e-05
2.7237548e-05
2.2839687e-05
1.8438469e-05
1.5661111e-05
1.4059848e-05
1.3442565e-05
1.3427728e-05
1.3913327e-05
1.5479215e-05
1.8554009e-05
2.3092522e-05
2.7843345e-05
3.1352673e-05
3.1501903e-05
2.7409166e-05
2.0892132e-05
1.5542062e-05
9.220612e-06
7.5610647e-06
1.1613326e-05
2.0739806e-05
2.7208494e-05
2.7358689e-05
2.6997242e-05
2.91162e-05
2.7794367e-05
2.4215633e-05
2.2039441e-05
2.0822974e-05
2.0489017e-05
2.105513e-05
2.225402e-05
2.4267942e-05
2.6877985e-05
2.9476584e-05
3.1090328e-05
3.0320292e-05
2.6991492e-05
2.1616623e-05
1.6213531e-05
1.1658312e-05
4.5391382e-06
9.1112213e-06
1.269359e-05
2.2368713e-05
2.5669181e-05
2.5156805e-05
2.7313205e-05
2.9813128e-05
2.8433168e-05
2.6811999e-05
2.6711652e-05
2.7322944e-05
2.8126587e-05
2.8883893e-05
2.9563918e-05
3.0249913e-05
3.0262293e-05
2.9137655e-05
2.6548835e-05
2.2204694e-05
1.5892278e-05
9.4314296e-06
4.8674269e-06
7.7385046e-06
1.476695e-05
2.1099835e-05
2.2759146e-05
2.3432372e-05
2.6621625e-05
2.8877621e-05
2.8743124e-05
2.8670048e-05
2.9473607e-05
3.0363307e-05
3.0597008e-05
3.024241e-05
2.9392308e-05
2.7760405e-05
2.4940154e-05
2.0024831e-05
1.3931088e-05
9.819401e-06
6.7176321e-06
6.7199774e-06
1.3305128e-05
1.8593987e-05
2.0330662e-05
2.115197e-05
2.3741353e-05
2.572142e-05
2.6554382e-05
2.711498e-05
2.7604397e-05
2.7246171e-05
2.5847615e-05
2.3535701e-05
1.9945807e-05
1.5193576e-05
1.1547485e-05
8.421455e-06
5.4023487e-06
4.2896291e-06
1.1388582e-05
1.6977534e-05
1.7978808e-05
1.8408082e-05
1.8791334e-05
1.9722583e-05
2.0678599e-05
2.0876332e-05
1.9640869e-05
1.7012381e-05
1.4386568e-05
1.234781e-05
1.0759697e-05
8.1340457e-06
4.3538225e-06
4.0812943e-06
1.1346315e-05
1.46772e-05
1.5299725e-05
1.5733174e-05
1.4844576e-05
1.3853183e-05
1.2914962e-05
1.1633793e-05
1.0874159e-05
8.7630785e-06
7.9224445e-06
7.8382133e-06
9.824858e-06
9.8119254e-06
9.9252462e-06
1.1588864e-05
7.3625033e-06
7.2505336e-06
1.7934013e-05
2.6424678e-05
2.6382363e-05
2.7540469e-05
2.7906677e-05
2.6150338e-05
2.7287921e-05
1.6775642e-05
1.5014388e-05
2.6076192e-05
3.1790916e-05
3.6788837e-05
4.06074e-05
4.2835393e-05
4.4350769e-05
4.6271634e-05
4.9416301e-05
5.0094832e-05
4.0362511e-05
3.6269414e-05
1.1768086e-05
8.7217349e-06
7.7211003e-06
2.725627e-05
4.0183039e-05
5.237842e-05
6.2192713e-05
6.853857e-05
7.1387568e-05
7.1283363e-05
6.817159e-05
6.3748324e-05
6.0695081e-05
6.1264538e-05
6.4540293e-05
6.2861423e-05
5.3632712e-05
2.3184944e-05
1.9623039e-05
1.021383e-05
3.0596521e-05
5.239472e-05
7.2964499e-05
8.8085101e-05
9.7580407e-05
0.00010228248
0.00010308742
0.00010085096
9.6254118e-05
8.9732854e-05
8.2292546e-05
7.4830935e-05
7.0708642e-05
7.1775328e-05
7.4125062e-05
6.0532298e-05
3.6924732e-05
1.4933907e-05
1.0649299e-05
3.6008153e-05
6.4935948e-05
9.010336e-05
0.00010652685
0.0001152258
0.00011839685
0.00011811797
0.00011595117
0.00011280208
0.00010870198
0.000103553
9.7613951e-05
9.1993184e-05
8.5338473e-05
7.9386046e-05
8.1040884e-05
8.2024634e-05
6.6611317e-05
3.8501618e-05
1.5179199e-05
8.7796003e-06
3.697713e-05
6.8240763e-05
9.3645719e-05
0.00010843322
0.00011419437
0.00011357447
0.00010963534
0.00010448147
9.959033e-05
9.5828084e-05
9.381838e-05
9.248312e-05
9.147833e-05
9.0748793e-05
8.9768672e-05
8.8054295e-05
8.691157e-05
9.0343465e-05
8.8123428e-05
6.6320542e-05
3.5666415e-05
1.3456068e-05
2.4332769e-05
6.327463e-05
8.8987411e-05
0.00010200761
0.00010542676
0.00010242229
9.6173521e-05
8.7239013e-05
7.7717828e-05
6.9232743e-05
6.3027552e-05
6.0392377e-05
6.160543e-05
6.5684835e-05
7.1730274e-05
7.7591583e-05
8.3325872e-05
8.8104118e-05
9.4053785e-05
9.9123905e-05
8.9692525e-05
5.9839066e-05
3.37483e-05
1.047948e-05
1.7892505e-05
5.5279534e-05
8.1436874e-05
9.3184603e-05
9.4992375e-05
9.2541668e-05
8.7602714e-05
7.6745994e-05
6.3422689e-05
5.070854e-05
4.0900697e-05
3.4782648e-05
3.2042717e-05
3.2956188e-05
3.7533046e-05
4.5385137e-05
5.5458252e-05
6.7464026e-05
7.9109201e-05
9.0854619e-05
0.00010232483
0.00010429756
8.291829e-05
5.1664559e-05
2.0609411e-05
3.7853076e-05
6.790926e-05
8.2325006e-05
8.4500229e-05
8.4723508e-05
8.4866713e-05
7.5127191e-05
5.9091021e-05
4.289968e-05
3.0148136e-05
2.1628649e-05
1.6642883e-05
1.4642363e-05
1.5366137e-05
1.8926834e-05
2.5625175e-05
3.5304912e-05
4.8360553e-05
6.4684811e-05
8.1439331e-05
9.9047394e-05
0.00011043999
0.00010013983
6.9792937e-05
3.5393222e-05
1.3967337e-05
9.723294e-06
4.4329671e-05
7.1491955e-05
7.5387448e-05
7.7199054e-05
8.4271138e-05
7.9960335e-05
6.3429347e-05
4.3466067e-05
2.7481561e-05
1.6734532e-05
1.0082011e-05
6.8100641e-06
5.9213784e-06
6.1466537e-06
7.7942131e-06
1.2757131e-05
2.1165767e-05
3.2926943e-05
4.9814637e-05
7.0504695e-05
9.2131303e-05
0.00011032708
0.00011021851
8.5346466e-05
4.6071108e-05
2.4620735e-05
2.1728357e-05
5.4873231e-05
6.6553708e-05
6.8642788e-05
7.9996918e-05
8.6347333e-05
7.4333383e-05
5.2043583e-05
3.1621563e-05
1.7622901e-05
9.1232061e-06
5.7730435e-06
6.8715577e-06
7.2203653e-06
7.2576491e-06
6.5061688e-06
6.1943961e-06
1.1970315e-05
2.2345943e-05
3.7619493e-05
5.992747e-05
8.5444624e-05
0.00010807803
0.00011509549
9.6357759e-05
5.691691e-05
2.7599145e-05
1.283545e-05
5.3843483e-05
6.0429836e-05
6.9334178e-05
8.6864716e-05
8.6675674e-05
6.8273803e-05
4.3562621e-05
2.4092074e-05
1.1738834e-05
6.6456598e-06
8.8072952e-06
8.1634424e-06
7.1710579e-06
7.2790148e-06
7.4948686e-06
8.4572215e-06
7.5152094e-06
1.5944059e-05
2.9646485e-05
5.1150879e-05
7.9751821e-05
0.00010598298
0.00011711097
0.00010300522
6.5847245e-05
3.1860912e-05
7.4919131e-06
2.8244574e-05
4.8788711e-05
5.8021747e-05
7.5407285e-05
9.2160238e-05
8.6381121e-05
6.4033758e-05
3.8525387e-05
1.9784453e-05
9.1486303e-06
8.3407196e-06
8.7477522e-06
7.7561011e-06
4.1296551e-06
4.1614318e-06
6.7248459e-06
7.6917557e-06
6.4258041e-06
1.269628e-05
2.5297584e-05
4.5962934e-05
7.6023981e-05
0.00010488861
0.00011772451
0.000105972
7.0901279e-05
3.6874353e-05
1.5510889e-05
3.4167841e-05
4.4545527e-05
5.8971071e-05
8.1113454e-05
9.5742015e-05
8.6539993e-05
6.2586185e-05
3.6920403e-05
1.8437879e-05
8.8604921e-06
8.8859196e-06
8.8258906e-06
6.3289329e-06
2.3775498e-06
2.3504314e-06
7.1209954e-06
7.6721693e-06
6.5509934e-06
1.2112858e-05
2.4026678e-05
4.4329148e-05
7.5476681e-05
0.00010540399
0.00011747878
0.00010574287
7.1242431e-05
3.2958959e-05
1.6747023e-05
2.9146948e-05
4.0768274e-05
6.0494824e-05
8.434498e-05
9.8727111e-05
8.7912492e-05
6.435007e-05
3.8922653e-05
1.9860306e-05
9.7500321e-06
9.4903018e-06
9.5572866e-06
7.1442276e-06
4.6693008e-06
5.9722539e-06
7.4577357e-06
7.6921069e-06
7.1712593e-06
1.3528057e-05
2.5583855e-05
4.6554789e-05
7.8609112e-05
0.00010718052
0.00011633487
0.0001027621
6.7008683e-05
3.2309097e-05
1.6635582e-05
2.8021764e-05
3.7375649e-05
6.0404892e-05
8.5238259e-05
0.00010054241
9.0648465e-05
6.9375957e-05
4.4543268e-05
2.4175148e-05
1.2340302e-05
8.4530045e-06
1.3880587e-05
8.3816636e-06
7.6033947e-06
7.6620582e-06
8.2463769e-06
7.4880189e-06
9.3108255e-06
1.6855738e-05
3.009042e-05
5.2810183e-05
8.4857997e-05
0.00010915747
0.00011379758
9.6508636e-05
5.8635732e-05
3.2284951e-05
1.2889861e-05
2.4803905e-05
3.3764175e-05
5.735823e-05
8.3344181e-05
0.00010084859
9.4447281e-05
7.6763836e-05
5.3806988e-05
3.2126863e-05
1.8007724e-05
1.0641411e-05
9.3325559e-06
9.8458736e-06
8.6304142e-06
8.4460801e-06
8.392032e-06
9.0309108e-06
1.374879e-05
2.2741851e-05
3.8176218e-05
6.2891695e-05
9.2851522e-05
0.00011024442
0.00010917375
8.7543513e-05
4.8607216e-05
2.7877803e-05
1.4966706e-05
2.9472496e-05
5.1666325e-05
7.7904823e-05
9.9080337e-05
9.7702634e-05
8.5336889e-05
6.6439914e-05
4.4583821e-05
2.7690822e-05
1.754421e-05
1.2403569e-05
1.0972713e-05
1.0432071e-05
1.0202963e-05
1.1228919e-05
1.4354444e-05
2.0868419e-05
3.2003452e-05
5.0232336e-05
7.618421e-05
0.00010037017
0.00010994165
0.00010192422
7.1904838e-05
3.4203198e-05
2.2468492e-05
2.4808279e-05
4.3734124e-05
6.8574981e-05
9.3768605e-05
9.8517405e-05
9.2656361e-05
8.007828e-05
6.1809703e-05
4.3030581e-05
2.9644053e-05
2.1204376e-05
1.6953333e-05
1.567792e-05
1.6084233e-05
1.8276703e-05
2.3159133e-05
3.1881854e-05
4.6099707e-05
6.7181314e-05
9.0424532e-05
0.00010516073
0.0001061402
8.8357747e-05
5.2238859e-05
2.6775667e-05
1.8664996e-05
2.027521e-05
3.4652676e-05
5.5588528e-05
8.3492455e-05
9.5222379e-05
9.635995e-05
9.1196083e-05
8.0216449e-05
6.4578204e-05
4.9382093e-05
3.8173449e-05
3.1015661e-05
2.7813355e-05
2.8152094e-05
3.1704627e-05
3.8764636e-05
5.0398241e-05
6.7331532e-05
8.6581149e-05
0.00010093389
0.00010558708
9.4857084e-05
6.5724239e-05
3.6431677e-05
1.9245136e-05
7.3399334e-06
6.6670841e-06
2.5118093e-05
4.0159583e-05
6.7376742e-05
8.5669635e-05
9.3360822e-05
9.6295839e-05
9.3837853e-05
8.5987282e-05
7.5127089e-05
6.4329225e-05
5.6314397e-05
5.1995232e-05
5.1912016e-05
5.6206575e-05
6.4401833e-05
7.6381723e-05
8.9529578e-05
0.0001002514
0.000104029
9.6370675e-05
7.3464006e-05
4.3891412e-05
1.5916946e-05
9.1388378e-06
1.6688911e-05
2.5172031e-05
4.7046283e-05
6.9020258e-05
8.2750699e-05
9.1463691e-05
9.8155978e-05
9.8837286e-05
9.5809614e-05
9.0838446e-05
8.5853154e-05
8.2487496e-05
8.1939045e-05
8.4617774e-05
9.0331295e-05
9.7333557e-05
0.0001026077
0.00010352589
9.5431729e-05
7.5562269e-05
4.8017535e-05
2.4822118e-05
1.9576884e-05
1.1794201e-05
2.6938434e-05
4.6950829e-05
6.4238171e-05
7.601576e-05
8.8633161e-05
9.7349635e-05
0.00010229209
0.0001043323
0.00010471187
0.00010428375
0.00010418927
0.00010488173
0.00010616319
0.00010626869
0.00010265182
9.221762e-05
7.2133292e-05
4.7209121e-05
2.5410734e-05
1.8089171e-05
9.5608868e-06
1.246896e-05
2.5833945e-05
4.0867176e-05
5.5237114e-05
6.5791938e-05
8.0113711e-05
9.055143e-05
9.7404711e-05
0.00010246494
0.00010504534
0.00010576339
0.00010455415
0.0001008199
9.322841e-05
7.9879851e-05
6.0117982e-05
4.0174835e-05
2.3842696e-05
1.7233306e-05
1.0112181e-05
1.099404e-05
1.687164e-05
3.6252155e-05
4.337866e-05
5.2632715e-05
6.4312291e-05
7.3377183e-05
8.0064207e-05
8.3606111e-05
8.3884244e-05
8.0546826e-05
7.3213587e-05
6.1928658e-05
4.8211329e-05
3.5068318e-05
2.5310564e-05
1.4809161e-05
9.295663e-06
1.0919124e-05
1.9637215e-05
2.6606852e-05
2.8532617e-05
3.8217462e-05
4.350596e-05
4.8157803e-05
5.0487148e-05
5.0050949e-05
4.6347382e-05
3.9530349e-05
3.2422666e-05
2.6270079e-05
1.9798248e-05
1.3119293e-05
1.4680993e-05
9.9825298e-06
2.1762072e-05
2.3746686e-05
2.9370072e-05
2.9432335e-05
2.8614403e-05
2.6449956e-05
2.3898169e-05
2.2452479e-05
1.8447585e-05
6.5936747e-06
8.1691052e-06
1.5703883e-05
1.636107e-05
1.5911253e-05
1.2015172e-05
9.0684583e-06
2.1337967e-05
3.2442039e-05
3.4528159e-05
3.622775e-05
3.6348545e-05
3.3902723e-05
2.7005504e-05
1.7864716e-05
1.7677735e-05
2.9223627e-05
3.6159337e-05
4.2609862e-05
4.9020605e-05
5.4957531e-05
6.0783479e-05
6.6756585e-05
7.095057e-05
7.0242031e-05
5.5694471e-05
4.6773119e-05
1.4245037e-05
9.8394433e-06
7.836746e-06
2.7614471e-05
4.1129356e-05
5.293139e-05
6.2934067e-05
7.0582662e-05
7.5395295e-05
7.7258782e-05
7.7364806e-05
7.7652388e-05
8.029559e-05
8.6010505e-05
8.9612226e-05
8.539786e-05
7.0180688e-05
2.823717e-05
2.0511921e-05
1.0521354e-05
3.1124629e-05
5.3976805e-05
7.6982639e-05
9.5966554e-05
0.00011004362
0.00011921105
0.0001236715
0.00012327324
0.00011864313
0.00011102151
0.00010294464
9.8207974e-05
0.00010052154
0.00010359935
0.00010662501
7.6651129e-05
4.3101876e-05
1.5105554e-05
1.1102197e-05
3.8550589e-05
7.510092e-05
0.00010738614
0.00012987942
0.00014410388
0.00015239516
0.00015631158
0.00015720301
0.00015592474
0.00015208874
0.0001452789
0.0001355582
0.00012429768
0.00011597941
0.00011297443
0.00011862931
0.00011586611
9.0031055e-05
4.4731419e-05
1.4236214e-05
9.1873606e-06
4.0940488e-05
8.3777775e-05
0.00011989995
0.00014078367
0.00015100614
0.00015447183
0.00015311942
0.00014860715
0.00014333991
0.00013976027
0.00013951578
0.00014109327
0.00014105318
0.00013762493
0.00013126949
0.00012483756
0.00012440684
0.0001301433
0.00012420056
8.981302e-05
4.03865e-05
1.2635643e-05
2.8659938e-05
7.5207403e-05
0.00011807773
0.00013813069
0.00014400758
0.00014377951
0.00013792263
0.00012747106
0.00011509893
0.00010426202
9.7601911e-05
9.641343e-05
0.00010119787
0.00011022819
0.00011932665
0.00012573074
0.00012781282
0.00012857157
0.00013438535
0.00013913984
0.00012458515
7.7234398e-05
3.6490185e-05
1.1458443e-05
1.9852416e-05
6.9936942e-05
0.00011249978
0.00012930313
0.00013154331
0.00013084977
0.00012549583
0.00011389524
9.703743e-05
7.9925124e-05
6.6196427e-05
5.7194201e-05
5.3376093e-05
5.6019e-05
6.5796149e-05
8.1275053e-05
9.8601839e-05
0.00011314567
0.0001234871
0.00013355277
0.00014400451
0.00014324856
0.00011053076
5.9781226e-05
2.2391805e-05
4.6988062e-05
9.1469481e-05
0.00011406385
0.00011771605
0.00011973222
0.00012076376
0.00011305473
9.3588852e-05
7.088587e-05
5.141613e-05
3.7460624e-05
2.8996381e-05
2.5365862e-05
2.6294227e-05
3.2850354e-05
4.6447135e-05
6.6073575e-05
8.8062549e-05
0.0001077014
0.00012549408
0.00014289883
0.00015179985
0.00013279006
8.3868119e-05
3.7640926e-05
1.5245892e-05
9.8190725e-06
5.7939703e-05
9.71886e-05
0.00010597271
0.00010876838
0.00011781356
0.00011913886
0.00010095451
7.344675e-05
4.8225857e-05
3.0092858e-05
1.9124959e-05
1.3316689e-05
1.1270437e-05
1.1141307e-05
1.3909607e-05
2.2975075e-05
3.993422e-05
6.304676e-05
8.8027621e-05
0.00011261349
0.00013695459
0.00015473099
0.00014623638
0.00010389736
4.9046016e-05
2.6533993e-05
2.180995e-05
7.4068884e-05
9.2723435e-05
9.5487333e-05
0.00010827799
0.00012317383
0.00011540012
8.6673036e-05
5.5261192e-05
3.1659391e-05
1.7829009e-05
1.1961041e-05
1.0055069e-05
9.07218e-06
9.1669155e-06
8.7526495e-06
1.0749904e-05
2.2862824e-05
4.3821732e-05
7.019945e-05
9.8864573e-05
0.00012908707
0.0001543041
0.00015383069
0.00011815569
5.9929944e-05
2.9908318e-05
1.4930469e-05
7.4946959e-05
8.3361482e-05
9.2007486e-05
0.0001156778
0.00012780895
0.00010858919
7.3646598e-05
4.2472319e-05
2.2561219e-05
1.393169e-05
1.3055838e-05
8.7743209e-06
7.7153266e-06
7.7325461e-06
8.2042859e-06
8.6848892e-06
1.3424246e-05
3.1408084e-05
5.7037312e-05
8.7914375e-05
0.00012196834
0.00015286732
0.00015785421
0.00012701192
7.0854646e-05
3.325211e-05
7.7772123e-06
3.6314007e-05
6.9753012e-05
7.630521e-05
9.4600086e-05
0.00012463889
0.00012953302
0.0001024457
6.5334118e-05
3.588276e-05
1.947888e-05
1.3894344e-05
1.0590209e-05
8.3930282e-06
4.2307573e-06
4.3192252e-06
6.8421155e-06
8.0786843e-06
1.0034591e-05
2.4979735e-05
4.9386995e-05
8.1072485e-05
0.00011804422
0.00015238196
0.00015961143
0.00013076051
7.6775581e-05
3.7297946e-05
1.5624393e-05
4.5957265e-05
6.2675105e-05
7.2143315e-05
9.9358908e-05
0.00013090262
0.00012964564
9.9493188e-05
6.2964446e-05
3.4659308e-05
1.9521442e-05
1.4058681e-05
1.031627e-05
6.8210637e-06
2.4240536e-06
2.524305e-06
6.8609324e-06
8.126379e-06
9.8141891e-06
2.3773429e-05
4.7124187e-05
7.9260511e-05
0.00011891359
0.00015370105
0.00015931831
0.00012964712
7.6447399e-05
3.1246062e-05
1.6708086e-05
3.606602e-05
5.55025e-05
6.946344e-05
0.00010291585
0.00013448766
0.00013060057
0.00010122771
6.6449976e-05
3.7965256e-05
2.1629271e-05
1.5171019e-05
1.1291388e-05
7.4542548e-06
4.9516678e-06
6.2689233e-06
7.1513262e-06
8.4515637e-06
1.1944477e-05
2.6880405e-05
5.0018333e-05
8.3447937e-05
0.00012480517
0.00015619213
0.00015660758
0.00012408447
7.0443626e-05
3.2603587e-05
1.664398e-05
3.4336313e-05
4.8376571e-05
6.7148794e-05
0.0001034551
0.0001353027
0.00013281072
0.00010750891
7.5121896e-05
4.58394e-05
2.6850809e-05
1.8058239e-05
1.3735705e-05
1.0144988e-05
7.7178267e-06
7.569173e-06
7.8324848e-06
1.0346304e-05
1.7972541e-05
3.4072317e-05
5.851558e-05
9.4122386e-05
0.00013421092
0.00015813879
0.00015039585
0.00011341705
5.9907947e-05
3.3573593e-05
1.4290883e-05
2.7237116e-05
4.1682186e-05
6.3056741e-05
0.00010011312
0.00013360551
0.00013588435
0.0001167056
8.8224446e-05
5.9057112e-05
3.6878301e-05
2.4488513e-05
1.8499161e-05
1.4074239e-05
1.1018429e-05
1.0752764e-05
1.222521e-05
1.7892504e-05
2.8309761e-05
4.632282e-05
7.3511109e-05
0.00010994731
0.0001436186
0.00015682085
0.00014027808
0.00010026572
4.9449892e-05
2.4290476e-05
1.7164029e-05
3.5301547e-05
5.6857141e-05
9.2892269e-05
0.00012907235
0.00013730029
0.00012669735
0.00010434379
7.7774546e-05
5.330066e-05
3.6630437e-05
2.786588e-05
2.351194e-05
2.0771515e-05
2.0402354e-05
2.3515573e-05
3.0987658e-05
4.4063381e-05
6.4872966e-05
9.4121841e-05
0.00012698565
0.0001500729
0.00015102789
0.00012592548
7.9354438e-05
3.3028378e-05
2.0456751e-05
2.8770764e-05
4.8629584e-05
8.168739e-05
0.00012084342
0.0001358328
0.00013390846
0.00012078115
0.00010030468
7.6971155e-05
5.6853298e-05
4.3741604e-05
3.7352066e-05
3.5162762e-05
3.5954299e-05
4.0546156e-05
5.0220126e-05
6.6123389e-05
8.8880051e-05
0.00011605149
0.00014007755
0.00015049616
0.00013866574
0.00010522528
5.8451519e-05
2.7920223e-05
1.9696649e-05
2.2959777e-05
3.8607842e-05
6.6339644e-05
0.00010750201
0.00012889014
0.00013522636
0.0001326174
0.00012239396
0.00010526733
8.6275529e-05
7.0230638e-05
6.0407257e-05
5.6834179e-05
5.848746e-05
6.4992436e-05
7.6626119e-05
9.3519062e-05
0.00011403425
0.00013401532
0.00014633819
0.00014278238
0.00012036899
8.0338189e-05
4.1746625e-05
1.874766e-05
8.4635728e-06
8.0067258e-06
2.6646728e-05
4.7292013e-05
8.764913e-05
0.00011559833
0.00012869017
0.0001338996
0.00013588575
0.00013041462
0.00011898833
0.0001059736
9.5361082e-05
9.0251988e-05
9.1125812e-05
9.7264389e-05
0.00010758301
0.00012084409
0.00013486914
0.00014433203
0.0001436236
0.00012849322
9.4650598e-05
4.9291303e-05
1.7074652e-05
1.0314204e-05
1.6968688e-05
2.8115983e-05
6.0415369e-05
9.388947e-05
0.00011408082
0.0001233631
0.00013292183
0.00014018512
0.00014122342
0.00013715417
0.00013086373
0.00012629868
0.0001255708
0.00012889187
0.00013496615
0.00014150196
0.0001457872
0.0001439376
0.00013163203
0.00010282962
6.0725314e-05
2.6855231e-05
2.0480702e-05
1.2217075e-05
3.1637518e-05
6.2545791e-05
8.9496501e-05
0.00010523962
0.00011458277
0.00012810226
0.00013851636
0.00014586905
0.00014891294
0.00014915473
0.00014881753
0.0001489271
0.00014927012
0.00014793715
0.00014228611
0.00012850921
0.00010137097
6.2293246e-05
2.8590506e-05
1.8311529e-05
1.0220015e-05
1.2809649e-05
3.0780687e-05
5.2261978e-05
7.9953912e-05
8.7959185e-05
0.00010136909
0.00011356011
0.00012497674
0.00013479712
0.00014054484
0.00014256824
0.00014133059
0.00013670634
0.000127389
0.00011110234
8.5775021e-05
5.3705956e-05
2.729927e-05
1.8556691e-05
1.03706e-05
1.1493924e-05
2.0340655e-05
4.6312557e-05
5.7700734e-05
6.658735e-05
7.97613e-05
8.7683131e-05
9.6960154e-05
0.00010398272
0.00010647711
0.0001038357
9.5780543e-05
8.2632583e-05
6.497241e-05
4.5639647e-05
2.8716072e-05
1.5352615e-05
9.8367603e-06
1.1560094e-05
2.2258988e-05
3.2167199e-05
3.4038765e-05
4.5387592e-05
5.1419318e-05
5.5499132e-05
5.8696392e-05
5.9085401e-05
5.5844958e-05
4.8632571e-05
4.0123803e-05
3.1067792e-05
2.4424566e-05
1.4034001e-05
1.6274732e-05
1.1226328e-05
2.4312754e-05
2.5962828e-05
3.320505e-05
3.4823202e-05
3.473907e-05
3.243705e-05
2.8559503e-05
2.5576781e-05
1.9336873e-05
7.4176106e-06
9.1966686e-06
1.7146057e-05
1.7332202e-05
1.6447172e-05
1.3430678e-05
1.0998619e-05
2.5088446e-05
3.8814147e-05
4.3190718e-05
4.5396453e-05
4.4990825e-05
3.998186e-05
2.8273015e-05
1.8479269e-05
2.2528618e-05
3.8381731e-05
4.8419551e-05
5.8604642e-05
6.9188396e-05
7.9432346e-05
8.8755182e-05
9.6513949e-05
9.8889459e-05
9.4143051e-05
7.2985616e-05
5.6841716e-05
1.5417976e-05
1.0244663e-05
9.3731066e-06
3.0588805e-05
4.410879e-05
5.5862529e-05
6.6811332e-05
7.6440248e-05
8.4154951e-05
8.9938474e-05
9.5322226e-05
0.00010185646
0.00010987624
0.00011826295
0.00012114966
0.00011239056
8.7861708e-05
3.455475e-05
2.1580768e-05
1.1125997e-05
2.8526098e-05
4.8063398e-05
7.0797222e-05
9.2398271e-05
0.00011017367
0.00012291172
0.00013022607
0.00013195788
0.00012929827
0.00012455845
0.00012131981
0.0001229607
0.00013096392
0.00013673847
0.00013632938
9.4688971e-05
5.165695e-05
1.5194799e-05
1.1314338e-05
3.8553839e-05
7.3859591e-05
0.00010983809
0.00013880958
0.00015899124
0.000171704
0.00017871581
0.00018161146
0.00018111187
0.00017681845
0.0001687984
0.00015773537
0.00014639388
0.0001409973
0.00014319376
0.00015208214
0.00014360377
0.00010721142
5.0875525e-05
1.4414556e-05
9.3206535e-06
4.4129664e-05
9.170552e-05
0.00013481216
0.00016286169
0.00017802097
0.00018468316
0.00018578222
0.0001832486
0.00017928346
0.0001763106
0.00017581362
0.00017638052
0.00017490911
0.00016900404
0.00016013573
0.00015365509
0.00015670021
0.00016282425
0.00014948442
0.00010397218
4.3443957e-05
1.2730314e-05
3.2374986e-05
8.8937327e-05
0.00014143682
0.00016841492
0.00017733848
0.00017787953
0.00017334266
0.00016402273
0.00015171041
0.00013996729
0.00013208591
0.00013086206
0.00013690994
0.00014772208
0.0001578993
0.00016274003
0.00016185377
0.00016159668
0.00016860402
0.00017007588
0.00014565148
8.562848e-05
3.6739461e-05
1.152992e-05
2.0490763e-05
8.3995934e-05
0.00013896829
0.00016308588
0.00016654845
0.00016444062
0.00016027628
0.00014924923
0.00013128314
0.00011135497
9.4364056e-05
8.2994347e-05
7.8444031e-05
8.25445e-05
9.6069036e-05
0.00011651587
0.00013738394
0.00015218285
0.00016047745
0.00016951637
0.00017815398
0.00016970364
0.0001238211
6.2043088e-05
2.1493214e-05
5.5490032e-05
0.00011648433
0.00014812427
0.00015218707
0.00015085114
0.00015253362
0.00014646287
0.00012681114
0.00010051442
7.5983323e-05
5.7483618e-05
4.5986515e-05
4.0876761e-05
4.2151914e-05
5.159964e-05
7.1290148e-05
9.8678444e-05
0.00012621912
0.00014750722
0.00016476519
0.00017971786
0.00018207639
0.00014999303
8.7861631e-05
3.6124854e-05
1.526513e-05
1.0012437e-05
7.3758653e-05
0.00012815383
0.00014010105
0.00013812062
0.00014514564
0.00014989985
0.00013427707
0.00010367436
7.2134976e-05
4.7722377e-05
3.2090642e-05
2.398825e-05
2.0616685e-05
2.0391669e-05
2.4626661e-05
3.813645e-05
6.3394752e-05
9.5779759e-05
0.00012674371
0.00015354052
0.0001767591
0.00018781538
0.00016639092
0.00010924877
4.6782963e-05
2.5381339e-05
2.2483961e-05
9.6843311e-05
0.00012628917
0.00012543325
0.00013178779
0.00014932732
0.00014768804
0.00011888896
8.1319324e-05
5.0266454e-05
3.0487761e-05
2.0631383e-05
1.7427676e-05
1.3928453e-05
1.3665616e-05
1.4034059e-05
1.9695987e-05
3.8659841e-05
7.0001563e-05
0.0001055087
0.00013950377
0.00017066728
0.00018965692
0.00017612223
0.00012452379
5.7601669e-05
2.7789303e-05
1.705789e-05
0.00010234745
0.00011594594
0.00011518218
0.00013594238
0.00015557913
0.00014201469
0.00010379434
6.5131459e-05
3.8261455e-05
2.4001991e-05