/*--------------------------------*- C++ -*----------------------------------*\
| =========                 |                                                 |
| \\      /  F ield         | OpenFOAM: The Open Source CFD Toolbox           |
|  \\    /   O peration     | Version:  2406                                  |
|   \\  /    A nd           | Website:  www.openfoam.com                      |
|    \\/     M anipulation  |                                                 |
\*---------------------------------------------------------------------------*/
FoamFile
{
    version     2.0;
    format      ascii;
    arch        "LSB;label=32;scalar=64";
    class       volScalarField;
    location    "850";
    object      p;
}
// * * * * * * * * * * * * * * * * * * * * * * * * * * * * * * * * * * * * * //

dimensions      [0 2 -2 0 0 0 0];

internalField   nonuniform List<scalar> 
150387
(
0.0033543425
0.0041347845
0.0029865154
0.0026922761
0.0026286101
0.0028405279
0.0042592845
0.0044822979
0.0054042524
0.0034588432
0.0021247336
0.00052105636
-0.00069881984
-0.0017174579
-0.0021764036
-0.0021782782
-0.0017071413
-0.00063305017
0.00073470261
0.0018635785
0.002993104
0.0043474214
0.0021820045
-0.00037803825
-0.0025966315
-0.0045871345
-0.0061441767
-0.0072041675
-0.0076200378
-0.0074673636
-0.0067981642
-0.0056308118
-0.0040822633
-0.0022067563
-0.00028994038
0.0018746279
0.0041176472
0.004689546
0.0034985218
0.00087675555
-0.0021566271
-0.0051033749
-0.0077579206
-0.010053613
-0.01189884
-0.013157938
-0.0137062
-0.013581249
-0.012821238
-0.01145073
-0.0095574878
-0.0072292955
-0.0046254891
-0.0018821137
0.00055109446
0.0027882168
0.0055505525
0.0037773889
0.00058168762
-0.0029312329
-0.0065853006
-0.010072388
-0.013240646
-0.015973985
-0.018147366
-0.019654359
-0.020342568
-0.020215714
-0.019345978
-0.017780506
-0.015580703
-0.01283525
-0.0097227961
-0.0064156137
-0.0031482796
-0.00019287441
0.0023712105
0.0040668943
0.00089745966
-0.003011102
-0.0071788743
-0.011407026
-0.015488478
-0.019261899
-0.022568887
-0.02522853
-0.027108341
-0.028012699
-0.027833649
-0.026736658
-0.02484051
-0.022239079
-0.019003581
-0.015302932
-0.011346117
-0.0073952922
-0.0035719816
-0.00029932626
0.0029425963
0.0048826085
0.0017874927
-0.002247002
-0.0067817266
-0.011586854
-0.01647366
-0.021269691
-0.025801975
-0.029884617
-0.033276451
-0.035713483
-0.036939968
-0.036693912
-0.035203686
-0.032737529
-0.029512749
-0.025652143
-0.021276919
-0.016598039
-0.01190973
-0.0073754624
-0.0032618339
0.0005448489
0.0028186032
0.0064074998
0.0030316816
-0.00084145312
-0.0055226087
-0.010678806
-0.016126803
-0.021726965
-0.02732984
-0.032783542
-0.037901063
-0.042354834
-0.045695128
-0.047457073
-0.047252037
-0.045236107
-0.0418895
-0.037633531
-0.032794831
-0.027549008
-0.022026405
-0.016532893
-0.011262977
-0.0064773705
-0.0021573059
0.00116368
0.0043325793
0.00097736431
-0.003552149
-0.0087831892
-0.014505827
-0.020577284
-0.02690396
-0.033376194
-0.039946346
-0.046420973
-0.05222653
-0.056655664
-0.059133031
-0.059253416
-0.056800977
-0.052460024
-0.046822344
-0.040528353
-0.034027455
-0.027472826
-0.02107016
-0.015019523
-0.0095480183
-0.0046125219
-0.00053523556
0.0031220028
0.0030692881
-0.0011221027
-0.0061861064
-0.011865528
-0.018067746
-0.024700652
-0.031705266
-0.039132934
-0.047075646
-0.055103845
-0.062099843
-0.067163568
-0.069944775
-0.070400086
-0.068038949
-0.063253424
-0.056521043
-0.048665738
-0.040578037
-0.032737016
-0.025319561
-0.018461461
-0.012314794
-0.006847363
-0.0021525787
0.0015628793
0.0057134787
0.0016608312
-0.0030152922
-0.0085196688
-0.014540185
-0.02112961
-0.028221856
-0.03590166
-0.044421999
-0.053859177
-0.063110404
-0.070475998
-0.075445226
-0.078097881
-0.078474339
-0.076323073
-0.071778146
-0.064921915
-0.056200886
-0.046717123
-0.037510304
-0.029040461
-0.021401071
-0.014649789
-0.0087514951
-0.0036718504
0.00012452662
0.0043891539
0.00023336953
-0.0046560384
-0.010429861
-0.01666747
-0.023526856
-0.031007623
-0.039381377
-0.049002412
-0.059660098
-0.069321111
-0.07643152
-0.08119217
-0.083791235
-0.084000618
-0.081791178
-0.077387427
-0.070756877
-0.061933238
-0.051653514
-0.04134056
-0.031927588
-0.023628008
-0.016400682
-0.010172704
-0.0048068571
-0.00053407518
0.0025324507
0.0036088276
-0.00079166816
-0.0058919542
-0.011785411
-0.018128296
-0.025168481
-0.032994064
-0.041970147
-0.052431895
-0.063697512
-0.073150002
-0.079960292
-0.084684823
-0.087459839
-0.08750661
-0.08499254
-0.080538955
-0.074030006
-0.0653052
-0.054748488
-0.043728275
-0.033664696
-0.024932166
-0.017433701
-0.011015463
-0.0055684851
-0.0011521252
0.0023103734
0.0031334916
-0.0011401961
-0.0065836188
-0.012503699
-0.018869593
-0.026026109
-0.034082815
-0.043396611
-0.054228603
-0.065431057
-0.074494894
-0.081282558
-0.086830521
-0.089541469
-0.088292997
-0.085848953
-0.081323517
-0.074858911
-0.066247679
-0.055622154
-0.044307537
-0.034067682
-0.025295144
-0.017766328
-0.011299157
-0.0057117968
-0.0013660727
0.0018011864
0.0031870127
-0.0012701972
-0.0066885878
-0.012584658
-0.018887121
-0.026033585
-0.034070723
-0.043274411
-0.053819721
-0.064445001
-0.073205162
-0.079760941
-0.084895601
-0.089623159
-0.086846956
-0.08450756
-0.080154448
-0.073788176
-0.065205747
-0.054503542
-0.043385126
-0.033433401
-0.024871842
-0.017484033
-0.011090279
-0.0056872401
-0.0012171854
0.0019108288
0.0039001527
-0.0007514429
-0.0062108526
-0.011994026
-0.018159526
-0.025118674
-0.032812771
-0.041474525
-0.051284117
-0.061313249
-0.069897958
-0.076290861
-0.080626915
-0.082874952
-0.082932995
-0.081056282
-0.077004081
-0.070839601
-0.062337544
-0.051860058
-0.041235659
-0.031800878
-0.023640377
-0.016545975
-0.010332879
-0.0050820595
-0.00082243522
0.0021795741
0.0047859699
0.00010409025
-0.0051401625
-0.010727567
-0.016654216
-0.023248695
-0.030448
-0.038375572
-0.047124334
-0.056288963
-0.064589162
-0.070920081
-0.07508654
-0.077195715
-0.077431089
-0.075770328
-0.071933214
-0.065885472
-0.05754323
-0.047652862
-0.037923134
-0.029289508
-0.021707086
-0.015027601
-0.0091117911
-0.0040711752
-0.00051064813
0.0022724078
0.0051034356
0.0012553921
-0.0035407183
-0.0088340885
-0.014469898
-0.020627649
-0.027244169
-0.034285942
-0.041818424
-0.049751939
-0.057363677
-0.063592042
-0.067775166
-0.069892944
-0.070218844
-0.068680751
-0.064947157
-0.059028342
-0.051141059
-0.042297216
-0.033782074
-0.026118481
-0.019222391
-0.013036307
-0.0075157304
-0.0027529461
0.00054309228
0.0025397966
-0.0015893415
-0.0065282617
-0.011744425
-0.017409001
-0.023374383
-0.029561061
-0.035913972
-0.042428073
-0.048822389
-0.054435724
-0.058542784
-0.060751911
-0.061255458
-0.059826161
-0.056273004
-0.05076938
-0.043838596
-0.036383122
-0.029188101
-0.02250019
-0.016308262
-0.01064869
-0.0055908146
-0.0012344374
0.001714811
0.0038880772
0.00060167827
-0.0038757715
-0.0085845324
-0.013714299
-0.019033812
-0.024467637
-0.02984196
-0.03510605
-0.04014737
-0.044644488
-0.048120794
-0.050205419
-0.050830374
-0.049718119
-0.046672852
-0.042073938
-0.036446603
-0.030414941
-0.024407718
-0.018589712
-0.013075604
-0.007955869
-0.0035077498
0.00020414624
0.0035833454
0.0030262421
-0.00095569496
-0.0051266466
-0.0097013663
-0.014415912
-0.019169178
-0.023787783
-0.02814088
-0.032136721
-0.035614564
-0.038310698
-0.03996184
-0.040433966
-0.039663984
-0.037382977
-0.033837966
-0.029439447
-0.024568059
-0.019512487
-0.014473987
-0.0096195696
-0.0050802181
-0.001044786
0.0015750489
0.0048890222
0.001668536
-0.001642791
-0.0056111165
-0.0097081332
-0.013847631
-0.017829822
-0.021529873
-0.024815504
-0.02759428
-0.029708028
-0.030995531
-0.031332515
-0.030725525
-0.029042285
-0.0263425
-0.022868941
-0.018885332
-0.014623809
-0.010303724
-0.0061019128
-0.0023482303
0.00093337311
0.0020090971
0.004253582
0.0014959483
-0.0016608669
-0.0051515708
-0.0086823739
-0.012097508
-0.015261947
-0.018031729
-0.020328358
-0.022045303
-0.023083986
-0.023354907
-0.02284923
-0.021580095
-0.019461228
-0.016673368
-0.01340209
-0.0098192942
-0.0061792686
-0.0027880771
0.00041131273
0.0033099799
0.0040267819
0.001598243
-0.00098940184
-0.0038939474
-0.0067710705
-0.0094711115
-0.011828299
-0.013768441
-0.015196769
-0.016048697
-0.016270593
-0.015853695
-0.014862499
-0.013200865
-0.010980203
-0.0083302782
-0.0053546716
-0.0025420779
0.00029568967
0.0025503992
0.0042861239
0.0025901956
0.00017536581
-0.0020553073
-0.004269955
-0.0062154565
-0.0078541673
-0.0090654941
-0.0098052716
-0.01003241
-0.0097311596
-0.0089600002
-0.0076125169
-0.0058401289
-0.0037658584
-0.0012357001
0.00079091743
0.0034539056
0.004813261
0.0032878661
0.00186698
8.8746874e-05
-0.0015576907
-0.0029225645
-0.0038951262
-0.0044962909
-0.0046886368
-0.0044259855
-0.0038153541
-0.0027448282
-0.0014719722
-3.7042835e-05
0.0016725146
0.001963497
0.0049447653
0.0031374184
0.0018147556
0.0010490148
0.00038429844
-0.00013604418
-0.00030928615
-9.0880724e-05
0.00016403948
0.0010052376
0.0017928913
0.0032313621
0.0041157578
0.0035538145
0.0032020357
0.0030107317
0.0039646115
0.002840192
0.0048359729
0.0047875666
0.004556659
0.0027435612
0.0024284258
0.0023413666
0.0024625304
0.0043596479
0.0047933203
0.0051975499
0.002214986
0.00099818968
-0.00054862491
-0.0017399276
-0.0028278602
-0.0031440921
-0.002991717
-0.0023783421
-0.0011195905
0.00027918496
0.0013809568
0.0031184588
0.00527226
0.0049654433
0.0040595915
0.0007584957
-0.0016895676
-0.0039055323
-0.0058655103
-0.0073070758
-0.0082097941
-0.0084817871
-0.008202971
-0.0074180695
-0.0061345498
-0.0045820507
-0.0025709531
-0.00093779368
0.001747125
0.0044070469
0.0052992707
0.0021614841
-0.00041747349
-0.0038060687
-0.0067391062
-0.009318686
-0.01151308
-0.013171222
-0.014296377
-0.014739262
-0.01450174
-0.013632741
-0.012124158
-0.010107606
-0.0076466764
-0.0049037506
-0.0020697527
8.6154445e-05
0.0031163548
0.0056198415
0.0024298226
-0.0005176822
-0.0044166791
-0.0082142739
-0.011735305
-0.014902643
-0.017588959
-0.019633382
-0.020961364
-0.021520524
-0.021228151
-0.020203783
-0.01847889
-0.016143655
-0.013248983
-0.010043402
-0.0066559025
-0.0031454277
-0.00035943838
0.0028874619
0.006120366
0.0025729825
-0.00023435047
-0.0046278479
-0.0089225086
-0.013260848
-0.017408118
-0.021215142
-0.024521273
-0.027119158
-0.028787986
-0.029491802
-0.029100219
-0.027794005
-0.025673512
-0.022863224
-0.019434376
-0.015581159
-0.011485049
-0.0075065785
-0.0034044902
-0.00049069942
0.0028536229
0.0043665092
0.00068770972
-0.0037430367
-0.0084475707
-0.013401134
-0.018432387
-0.023357351
-0.028033775
-0.032239121
-0.035658069
-0.037946799
-0.038828615
-0.038271628
-0.036510494
-0.033749721
-0.03022425
-0.026087686
-0.021519268
-0.016668471
-0.011920226
-0.0072929953
-0.0031325031
0.00093795375
0.0023475599
0.0064209152
0.0014836462
-0.0022007186
-0.0071633794
-0.012462275
-0.018079327
-0.023857093
-0.029681364
-0.035420693
-0.040784062
-0.045295371
-0.048480433
-0.049750443
-0.049060474
-0.0467254
-0.043067002
-0.038459867
-0.033260066
-0.02773437
-0.022013554
-0.016435477
-0.011094776
-0.0064095408
-0.0019816024
0.00075963551
0.003433463
-0.00018930078
-0.0050201274
-0.010405301
-0.016311
-0.022577281
-0.029143327
-0.035983387
-0.042993521
-0.049726613
-0.055436389
-0.059480689
-0.061303557
-0.06077788
-0.057993292
-0.053424591
-0.047532795
-0.040931215
-0.034128141
-0.027336496
-0.020840035
-0.014699537
-0.0093368283
-0.004214151
-0.00052068668
0.0027280479
0.0065446988
0.0020955122
-0.00239771
-0.007679991
-0.013477846
-0.019880577
-0.026719824
-0.034080542
-0.042042962
-0.050443942
-0.058478611
-0.065053341
-0.06954008
-0.071601387
-0.071248822
-0.06850174
-0.063538997
-0.056680488
-0.048696093
-0.040449465
-0.032418188
-0.024920173
-0.017990366
-0.011919629
-0.0063627815
-0.0015839456
0.0020226403
0.0053608931
0.00054159838
-0.0042024027
-0.0099427917
-0.016075746
-0.022868626
-0.030230974
-0.038411157
-0.047526224
-0.057180421
-0.066042194
-0.072844799
-0.077331937
-0.079392989
-0.07906937
-0.076501995
-0.071622747
-0.064489467
-0.055639234
-0.046156026
-0.036913127
-0.028427519
-0.020773752
-0.014099444
-0.0082110578
-0.0029587544
-7.7816252e-05
0.0039459354
-0.00094167951
-0.005786878
-0.011768682
-0.018102473
-0.025177323
-0.033011473
-0.041946314
-0.052037325
-0.06251565
-0.07156928
-0.078400311
-0.082904464
-0.084946322
-0.084463147
-0.081929381
-0.0770329
-0.069976729
-0.060858272
-0.050596595
-0.04039734
-0.031083271
-0.022842018
-0.01571084
-0.0095440759
-0.0040110481
-0.00074653173
0.003296035
0.0033369539
-0.0020608605
-0.0069793901
-0.01298864
-0.019436664
-0.026711962
-0.034917473
-0.044401484
-0.055113235
-0.065865227
-0.074757639
-0.081437831
-0.084728744
-0.087305146
-0.087510845
-0.08489621
-0.079979492
-0.073003257
-0.063901858
-0.053273474
-0.042470888
-0.032618389
-0.024027046
-0.016675729
-0.010336017
-0.0050000667
-0.0013847672
0.00295493
0.0017524528
-0.0018907862
-0.0076051218
-0.013541483
-0.020044207
-0.027424571
-0.035830982
-0.045574466
-0.05642715
-0.066907797
-0.075541647
-0.082164521
-0.08713792
-0.089692343
-0.08829243
-0.085366995
-0.08051684
-0.073572198
-0.06454618
-0.053827768
-0.042860161
-0.032914819
-0.024277807
-0.016871574
-0.010544488
-0.0047636877
-0.0010882903
0.0024387358
0.0028713444
-0.0022688803
-0.0075515129
-0.01347726
-0.019896903
-0.027205758
-0.035509445
-0.045081543
-0.055556479
-0.065599644
-0.073906712
-0.080045531
-0.08520876
-0.089700649
-0.086962616
-0.083612762
-0.07894509
-0.072050235
-0.06303297
-0.052399921
-0.041686502
-0.032038931
-0.023639503
-0.016434253
-0.01014801
-0.005048946
-0.0014243607
0.0027413957
0.0035619332
-0.0014342646
-0.0069497371
-0.012700819
-0.018972103
-0.026066369
-0.034006137
-0.042965296
-0.052664953
-0.062192963
-0.070336745
-0.076507809
-0.080542043
-0.082481905
-0.082010287
-0.079836026
-0.075283922
-0.06853587
-0.059624971
-0.049380373
-0.039271149
-0.030195475
-0.022230585
-0.01534992
-0.0091971832
-0.0042090428
-0.00094229599
0.003283849
0.0045647318
-0.00052246993
-0.005801369
-0.011353823
-0.01734329
-0.024046961
-0.031374228
-0.039474901
-0.048165176
-0.056909672
-0.064717223
-0.070726837
-0.074713872
-0.076627256
-0.076349844
-0.074129828
-0.069687883
-0.06308324
-0.054509458
-0.04502792
-0.035838162
-0.027557668
-0.0201857
-0.013723252
-0.0078876182
-0.0029231355
-0.00037047311
0.0051593517
0.00076749183
-0.0040967733
-0.0094592641
-0.015036567
-0.021258654
-0.027877205
-0.035013221
-0.042515244
-0.050150212
-0.05725222
-0.063043264
-0.066946258
-0.068878557
-0.068740766
-0.066594753
-0.062278736
-0.055970187
-0.048140827
-0.039774213
-0.031717377
-0.024350879
-0.017660254
-0.011675901
-0.0063166066
-0.0015454676
0.00029567895
0.0018037149
-0.0020888748
-0.0071302827
-0.012183506
-0.017861785
-0.023756194
-0.02996115
-0.036282414
-0.042642184
-0.048650531
-0.053787798
-0.057534905
-0.059557018
-0.05952251
-0.057500661
-0.053503799
-0.047874913
-0.04115612
-0.034085295
-0.02720525
-0.020745068
-0.014734164
-0.0092596546
-0.0043649146
-0.00044081708
0.0024402462
0.0044139293
0.00012029228
-0.0044126232
-0.0089136528
-0.01401201
-0.019222789
-0.024611033
-0.02991927
-0.035110484
-0.039952637
-0.044134955
-0.047277261
-0.049104903
-0.049268267
-0.047625038
-0.044284708
-0.039646831
-0.034171716
-0.028356424
-0.022537559
-0.016889558
-0.011550559
-0.0065527749
-0.0026057023
-3.8403405e-05
0.0038471224
0.0052393383
0.0031027073
-0.0012463307
-0.0053139918
-0.0098871424
-0.014444508
-0.019142619
-0.023649348
-0.027929478
-0.031808177
-0.035122026
-0.037609623
-0.039068681
-0.039258412
-0.038049951
-0.035469611
-0.03183409
-0.02746942
-0.022697162
-0.01774801
-0.012838175
-0.0081756603
-0.0037024831
5.0627031e-05
0.0013862704
0.0044570364
0.0012151001
-0.0015504623
-0.0057253174
-0.0096428359
-0.013706065
-0.017573073
-0.021185429
-0.02436439
-0.027032379
-0.029007775
-0.030159514
-0.030339762
-0.029445465
-0.027498472
-0.024671293
-0.021174386
-0.017224483
-0.013031948
-0.0088415131
-0.0046251913
-0.0014693191
0.00089594507
0.0045332689
0.001239338
-0.0014847012
-0.0050494795
-0.0085011284
-0.011764867
-0.014834125
-0.017490341
-0.01969592
-0.02130905
-0.02225422
-0.022429607
-0.021754016
-0.020243856
-0.01798604
-0.015149244
-0.011894446
-0.0083381877
-0.0046566182
-0.0017221975
0.00039645615
0.0031988247
0.0044068562
0.0012727224
-0.00070979236
-0.0036206349
-0.0064491714
-0.0090821868
-0.011339264
-0.013216728
-0.014562428
-0.015342372
-0.015484979
-0.014946493
-0.013769917
-0.011999074
-0.0097782345
-0.0071429879
-0.004088348
-0.0016810796
0.00037588268
0.0027507263
0.0044362104
0.0028394384
-4.7484824e-06
-0.0016726333
-0.0038499609
-0.0056260833
-0.0072173906
-0.008385082
-0.0091068265
-0.0093228951
-0.0089335238
-0.0079708615
-0.0064748254
-0.0046651957
-0.0026749628
0.00022558498
0.0009898501
0.0030268247
0.00486486
0.0034345916
0.0018082609
0.00051005398
-0.0010724169
-0.0025451056
-0.003487031
-0.0040371805
-0.0041466977
-0.0035268968
-0.0027627552
-0.0016610329
-0.00086440937
4.1693043e-05
0.0028462859
0.0051570345
0.0030448703
0.0020222317
0.0012837703
0.00059963474
9.4721243e-05
-7.8395753e-05
5.0850944e-05
0.00051963658
0.0010927563
0.0029471277
0.0023594874
0.0045232591
0.004063256
0.0034429372
0.0036484658
0.0035804941
0.004420804
0.0045484514
0.0045352865
0.0023917092
0.0021185427
0.0020296518
0.0021192196
0.0042167113
0.0045566179
0.0048040286
0.0018092631
0.00072136205
-0.0007558256
-0.0019639418
-0.0031402922
-0.0034655674
-0.0032676582
-0.0025756806
-0.0012015076
0.00018903039
0.0012574307
0.0031214248
0.0053061501
0.0046952447
0.0038978531
0.00051436034
-0.0019533453
-0.0041347428
-0.006097508
-0.0075485603
-0.0084336091
-0.0086238674
-0.0082676479
-0.0074287697
-0.0061099099
-0.0045797683
-0.0025837241
-0.0010585755
0.0016805747
0.0046056022
0.0050634933
0.0018906661
-0.00060745238
-0.0040746473
-0.0070458337
-0.0096146021
-0.01179218
-0.013422513
-0.014516347
-0.014900578
-0.014583997
-0.013628453
-0.01204155
-0.0099986507
-0.0075454518
-0.0048357482
-0.0020219317
-4.7423792e-05
0.0031686886
0.0054421426
0.0023232402
-0.00051271313
-0.0045345586
-0.0084367415
-0.011999883
-0.015173353
-0.017861636
-0.019902763
-0.021202593
-0.021714307
-0.021364552
-0.020258836
-0.018434511
-0.016026899
-0.01310486
-0.0099149511
-0.0065552028
-0.0030599186
-0.000460868
0.0028279691
0.0058757813
0.0023851341
-0.00018799105
-0.0047175452
-0.0090976619
-0.013484233
-0.01764623
-0.021466076
-0.024785643
-0.027393116
-0.029042916
-0.029707506
-0.029287652
-0.027933299
-0.025718922
-0.022798489
-0.019285033
-0.015423163
-0.011349223
-0.007423496
-0.0033323958
-0.00069016625
0.0027884105
0.0044518878
0.00072453518
-0.0037652268
-0.0085250118
-0.01352471
-0.018572534
-0.023519881
-0.028232277
-0.032468182
-0.035892423
-0.038165542
-0.039006138
-0.038436392
-0.036696347
-0.033899165
-0.030270504
-0.026006483
-0.021368785
-0.016526208
-0.011842558
-0.0072297973
-0.003205182
0.0008827457
0.0016031999
0.0065023983
0.0013235907
-0.0022028481
-0.0071930053
-0.012526247
-0.018149443
-0.023947919
-0.029822106
-0.035619133
-0.040992654
-0.045441666
-0.048537123
-0.049710724
-0.04901596
-0.046798475
-0.043217102
-0.038591786
-0.033282418
-0.027645421
-0.02188648
-0.016371658
-0.011064661
-0.0064715803
-0.0020642815
0.00040875119
0.0033573389
-0.00021573312
-0.0050042883
-0.010407136
-0.016322101
-0.022610618
-0.029239777
-0.036170786
-0.043224421
-0.049857302
-0.055367972
-0.059230335
-0.060918
-0.060339973
-0.057719903
-0.053366018
-0.047619613
-0.041019858
-0.034124923
-0.027257335
-0.020790427
-0.014690411
-0.0093950646
-0.0042587881
-0.00066440791
0.0024890595
0.0063762718
0.0020125599
-0.0024199289
-0.0076541917
-0.013468003
-0.01988839
-0.02679735
-0.034259497
-0.042304128
-0.050628138
-0.05837349
-0.064671823
-0.06902562
-0.071041235
-0.070640324
-0.067902496
-0.063084957
-0.05648326
-0.048690518
-0.040475448
-0.032392888
-0.024894741
-0.017994255
-0.011959635
-0.0063511229
-0.001626247
0.0019929726
0.0053854127
0.00044432439
-0.0041983141
-0.00991711
-0.016075098
-0.02292759
-0.030394014
-0.038664871
-0.047774546
-0.057159036
-0.065634476
-0.072316026
-0.076882506
-0.079023074
-0.07867584
-0.075961844
-0.070991432
-0.063978492
-0.055396691
-0.046102427
-0.036901546
-0.028426466
-0.02079235
-0.014133459
-0.0082033356
-0.002915253
-0.00026258182
0.003588091
-0.0011376303
-0.0058129336
-0.011789462
-0.018164487
-0.02531813
-0.033245619
-0.042210126
-0.052155499
-0.062216416
-0.071045469
-0.078006971
-0.082566521
-0.084740627
-0.084254174
-0.081623046
-0.076557094
-0.069408258
-0.060420349
-0.050410927
-0.040354601
-0.03109559
-0.022877272
-0.01574215
-0.0095538897
-0.0039691044
-0.0010342356
0.0031308363
0.0030892323
-0.0023159057
-0.0070574833
-0.013076116
-0.019577293
-0.026914695
-0.035171349
-0.044607507
-0.055044404
-0.065360878
-0.074329515
-0.081194501
-0.084513804
-0.087218048
-0.087419261
-0.084711739
-0.079707447
-0.072547217
-0.063380312
-0.052969843
-0.042379796
-0.032629427
-0.024063289
-0.016705731
-0.01035566
-0.0050535255
-0.0015476865
0.0031017236
0.0013539694
-0.0021227602
-0.0077719128
-0.013697415
-0.020248675
-0.027656337
-0.036076818
-0.045729577
-0.056280761
-0.066475985
-0.075249665
-0.081962139
-0.08719938
-0.089670498
-0.088314392
-0.085285997
-0.080352918
-0.073192348
-0.064008521
-0.053474539
-0.042746847
-0.032916502
-0.024311785
-0.016891022
-0.010550514
-0.0047783598
-0.0012015289
0.0024714974
0.0025770343
-0.0025957583
-0.0077888502
-0.013701693
-0.020144934
-0.027458931
-0.035774277
-0.045280644
-0.055491781
-0.065287618
-0.073630069
-0.079775119
-0.085282469
-0.089646579
-0.087054726
-0.083592189
-0.078766799
-0.071651036
-0.062535334
-0.052132838
-0.041643153
-0.032082161
-0.023686587
-0.016443255
-0.010098876
-0.0051228393
-0.0013799408
0.0028108666
0.0031661615
-0.0016729556
-0.0072082079
-0.012961969
-0.019231474
-0.026334171
-0.0342884
-0.043216298
-0.052737475
-0.061991911
-0.07001553
-0.076288789
-0.08045543
-0.082447849
-0.081958967
-0.07975268
-0.075011957
-0.06809989
-0.059265975
-0.049292124
-0.039335814
-0.030283853
-0.022272756
-0.015326444
-0.0090950551
-0.0042576387
-0.00094180743
0.0032837899
0.004421363
-0.0007395679
-0.0060409186
-0.011641325
-0.017608551
-0.024301288
-0.031640289
-0.039768478
-0.048381155
-0.056893356
-0.064445787
-0.070393347
-0.074511327
-0.076545932
-0.076263117
-0.073935669
-0.069344337
-0.062708116
-0.054361544
-0.045106785
-0.03597645
-0.02765322
-0.02019572
-0.013649512
-0.0077493484
-0.0028697464
-0.00028674401
0.0051375003
0.00049187106
-0.0043309212
-0.0097520558
-0.015290816
-0.021490705
-0.028108472
-0.035304912
-0.042830732
-0.050356407
-0.057214117
-0.062776238
-0.066619269
-0.068597455
-0.068478453
-0.066291387
-0.061970837
-0.055797793
-0.048203177
-0.039949515
-0.031863576
-0.024406993
-0.017619856
-0.011564101
-0.0061904251
-0.001471152
0.00031691572
0.0013906756
-0.002356889
-0.007429727
-0.012421129
-0.01807187
-0.023937378
-0.030197386
-0.036593193
-0.04296862
-0.048868594
-0.053795512
-0.057315698
-0.059216984
-0.059230925
-0.057282973
-0.053395705
-0.047923152
-0.041324953
-0.034250476
-0.027282582
-0.020718929
-0.014633203
-0.0091190101
-0.0042505674
-0.00037829648
0.002536089
0.0043872426
-0.00014659061
-0.0046822861
-0.0091030455
-0.014191215
-0.019353208
-0.024769373
-0.030146632
-0.035403805
-0.040242578
-0.044340982
-0.047339025
-0.049029471
-0.049178087
-0.047603685
-0.044348384
-0.039782174
-0.034314783
-0.028430896
-0.022515375
-0.016788667
-0.011408095
-0.0064051428
-0.0025849752
-6.9127767e-05
0.0039679152
0.0053567606
0.0029058983
-0.0014557308
-0.0054149568
-0.010004782
-0.014525722
-0.019230601
-0.02378019
-0.028127317
-0.032040305
-0.035337552
-0.037761569
-0.039144745
-0.039317877
-0.038133261
-0.035567414
-0.031925245
-0.027513005
-0.022664426
-0.017645848
-0.012691332
-0.0080160466
-0.0035581297
0.00011811917
0.0013750919
0.0043859554
0.00093134561
-0.0015517807
-0.0057666884
-0.009661808
-0.013737706
-0.017621265
-0.021284667
-0.024507561
-0.027193235
-0.029151092
-0.030265107
-0.030426444
-0.029534116
-0.027563816
-0.024705116
-0.02116717
-0.017169286
-0.012929396
-0.0087041354
-0.0044679419
-0.0014730465
0.0010285316
0.0044924923
0.0011259455
-0.0014145825
-0.0050136504
-0.0084729848
-0.011748778
-0.014854726
-0.017544983
-0.019785767
-0.0214116
-0.02235163
-0.022516427
-0.021828152
-0.020292361
-0.018005298
-0.01513709
-0.011840727
-0.0082342973
-0.0045325559
-0.0017372
0.00048064289
0.003323518
0.0044369154
0.0011324633
-0.0006297486
-0.0035515597
-0.0063735274
-0.0090335417
-0.011318027
-0.013244012
-0.014624333
-0.015426499
-0.015573235
-0.015022153
-0.013831678
-0.012050975
-0.0098304843
-0.0071795418
-0.0041104076
-0.0017997302
0.00039449777
0.0030502506
0.0044915506
0.0029266033
-6.717068e-05
-0.0016036973
-0.0037972451
-0.0055640826
-0.0071925681
-0.0083911989
-0.0091554931
-0.0094036184
-0.0089898085
-0.0079993273
-0.0064905762
-0.0047138359
-0.0027238358
0.00018927591
0.0010529221
0.002977885
0.0048846221
0.0035229313
0.0018293215
0.00054038971
-0.0010511702
-0.0026370513
-0.0036400918
-0.0042060875
-0.004276583
-0.0035483304
-0.0027737357
-0.0017515841
-0.001029199
1.085873e-05
0.0029439752
0.0052220785
0.0029863941
0.0020573426
0.0013024936
0.00065473288
0.0001570687
-2.2527123e-05
-1.1256916e-05
0.00059498927
0.0010268265
0.0030108211
0.0023136877
0.0045637755
0.004148894
0.0035035094
0.0037528864
0.0036584053
0.0041023344
0.0041585083
0.0042332532
0.001979442
0.0017432253
0.0016859841
0.0018168775
0.0039456187
0.0043117365
0.0044416073
0.0012760552
0.00030214835
-0.0011530443
-0.0023233748
-0.0035187674
-0.0038065749
-0.0035483699
-0.0028122681
-0.0013559214
8.0252556e-05
0.0011486719
0.0030765126
0.0051883806
0.0043266014
0.0037073485
0.00015952181
-0.0023603455
-0.0045397108
-0.0064921517
-0.0079088049
-0.0087300267
-0.0088272335
-0.0083927811
-0.0075029179
-0.0061387978
-0.0046098685
-0.0025792828
-0.0011441784
0.001730472
0.0044119028
0.0046700479
0.0015532959
-0.00093159595
-0.0045269973
-0.0075317512
-0.010076129
-0.012219201
-0.013798224
-0.014831227
-0.015132073
-0.014725891
-0.013692736
-0.012040232
-0.0099757594
-0.007499964
-0.0047940129
-0.0019275548
-0.00013731075
0.0031138486
0.0050837937
0.0021815583
-0.00063193929
-0.0048095334
-0.0088218264
-0.012415851
-0.015591644
-0.018272905
-0.020293285
-0.021550556
-0.021987749
-0.021549124
-0.020356374
-0.018449439
-0.015996929
-0.013046021
-0.0098655338
-0.0064784384
-0.0029523972
-0.00046888545
0.002771542
0.0054211434
0.0022171174
-0.0002135961
-0.0049665499
-0.0094511914
-0.013894558
-0.01808313
-0.021913371
-0.025230432
-0.027825573
-0.029446044
-0.030063389
-0.029582084
-0.028152802
-0.025843845
-0.022840197
-0.019263134
-0.01539041
-0.01129685
-0.00738146
-0.0032097809
-0.00075104305
0.0027515935
0.0047114485
0.00080285861
-0.0038677427
-0.0087510742
-0.013822695
-0.018925406
-0.023914863
-0.028647647
-0.03287777
-0.036276491
-0.038520129
-0.039344517
-0.038756568
-0.036985445
-0.034123534
-0.030412873
-0.026061344
-0.021382015
-0.016513059
-0.011849794
-0.0071629679
-0.003208588
0.0010185992
0.00088801621
0.006496851
0.0012316676
-0.0022469612
-0.0073473102
-0.012757604
-0.018437441
-0.024297599
-0.030217611
-0.036010518
-0.041324283
-0.045684565
-0.048699642
-0.049835338
-0.049164115
-0.046981169
-0.043407801
-0.03876527
-0.033402009
-0.027718769
-0.021921981
-0.016427005
-0.011071857
-0.0065294538
-0.0020118132
0.0002755026
0.0033737876
-0.00019668149
-0.0050535616
-0.010531202
-0.01651025
-0.022874371
-0.029587283
-0.036551529
-0.043534207
-0.050026373
-0.05539623
-0.05917005
-0.060778263
-0.060178365
-0.057613902
-0.05332468
-0.047654147
-0.041098453
-0.034217655
-0.027332321
-0.020880974
-0.014741118
-0.0094844603
-0.0042461956
-0.00076193486
0.0022858582
0.0061684917
0.0019344693
-0.0024831563
-0.0077392775
-0.013587368
-0.020079827
-0.027089104
-0.034642282
-0.042663428
-0.05081931
-0.058373877
-0.064560149
-0.068857485
-0.070826974
-0.070389997
-0.067631308
-0.062834941
-0.05631376
-0.048629427
-0.040514312
-0.032473522
-0.025007194
-0.01807
-0.012047157
-0.0063310273
-0.0016429675
0.0019756633
0.0052210612
0.00028157523
-0.0042719541
-0.010000076
-0.016188196
-0.023140536
-0.030731185
-0.039072451
-0.048072959
-0.057223441
-0.065538962
-0.072214971
-0.076793938
-0.078936725
-0.07854821
-0.075765016
-0.070738251
-0.063719846
-0.055209276
-0.046051004
-0.036956462
-0.028545011
-0.02088652
-0.014217887
-0.008211594
-0.002893102
-0.00036736663
0.0033279692
-0.0013954493
-0.0059403782
-0.011905025
-0.018317117
-0.025587341
-0.033635682
-0.042622624
-0.052384669
-0.062211243
-0.070952771
-0.078027432
-0.082571638
-0.084785111
-0.084286638
-0.08161314
-0.076417862
-0.069167583
-0.060169875
-0.050280944
-0.04037555
-0.03121161
-0.022983809
-0.015815868
-0.0095813332
-0.003912829
-0.0011730022
0.0027834392
0.0027891332
-0.0026099339
-0.0072405973
-0.013235799
-0.019788375
-0.027240406
-0.035594095
-0.045000211
-0.05521321
-0.065323658
-0.074285197
-0.081279781
-0.084522259
-0.087189152
-0.087442325
-0.084786795
-0.079669444
-0.072364692
-0.063122641
-0.052798072
-0.042379271
-0.032742599
-0.024164139
-0.016768384
-0.01038452
-0.0050687202
-0.001633766
0.0030626764
0.00085383316
-0.0023900174
-0.0080202368
-0.013916112
-0.020525038
-0.028030046
-0.036515279
-0.046094118
-0.056411589
-0.066444453
-0.075279264
-0.082045586
-0.087248231
-0.089665808
-0.088324888
-0.085419898
-0.080356619
-0.073023513
-0.063752275
-0.05331508
-0.042770797
-0.033041064
-0.024408607
-0.016928478
-0.010546321
-0.0047181885
-0.0013390302
0.0024227999
0.0021838036
-0.0029933197
-0.008105747
-0.013998051
-0.020484637
-0.027877621
-0.036219455
-0.045636675
-0.055630362
-0.065300339
-0.07370278
-0.079847598
-0.085372986
-0.089564529
-0.08719457
-0.083786973
-0.078784878
-0.071480145
-0.06229711
-0.052030216
-0.04172082
-0.032226372
-0.023772935
-0.016457836
-0.010045876
-0.0051228856
-0.0013920595
0.0027880873
0.0027478075
-0.0020356157
-0.0075813772
-0.013305315
-0.01960493
-0.026777565
-0.034741291
-0.04360113
-0.052944261
-0.0620626
-0.07009462
-0.076441913