/*--------------------------------*- C++ -*----------------------------------*\
| =========                 |                                                 |
| \\      /  F ield         | OpenFOAM: The Open Source CFD Toolbox           |
|  \\    /   O peration     | Version:  2406                                  |
|   \\  /    A nd           | Website:  www.openfoam.com                      |
|    \\/     M anipulation  |                                                 |
\*---------------------------------------------------------------------------*/
FoamFile
{
    version     2.0;
    format      ascii;
    arch        "LSB;label=32;scalar=64";
    class       volScalarField;
    location    "450";
    object      epsilon;
}
// * * * * * * * * * * * * * * * * * * * * * * * * * * * * * * * * * * * * * //

dimensions      [0 2 -3 0 0 0 0];

internalField   nonuniform List<scalar> 
150387
(
0.0010561167
0.00045553181
0.00037474001
0.00030435148
0.00024716301
0.00022217468
0.00029632804
0.000329598
0.0028177013
0.00099954115
0.0010042511
0.00099527212
0.00090362564
0.00076991409
0.00059810988
0.00042492732
0.0002890728
0.00020904791
0.00016020887
0.00013633537
0.00027350937
0.0013137944
0.0016198142
0.0017311752
0.0016986167
0.0015546169
0.0013502432
0.0011353956
0.00092811151
0.00072114661
0.00051944722
0.00034533596
0.00022594528
0.00016064113
0.00014692107
0.00052708741
0.0012529578
0.0029483586
0.0016365607
0.0019286335
0.0019575439
0.0019310813
0.0018886226
0.0017662112
0.0015515055
0.0012895474
0.0010390408
0.00082490753
0.00063523867
0.00045963406
0.00031334492
0.00020767814
0.00018975586
0.00038132912
0.00070480095
0.00096439084
0.0046339815
0.0018355711
0.0020062507
0.0020807628
0.002089171
0.0020178913
0.0018608793
0.0016612519
0.0014595373
0.0012495207
0.0010314264
0.00082596006
0.00064856789
0.0004945152
0.00036560755
0.00025060118
0.00026927564
0.0004082371
0.00062199539
0.00076911454
0.00080679399
0.0020121849
0.0020893058
0.0020863805
0.0020604363
0.0020625265
0.0020160525
0.001891219
0.0016944075
0.0014484405
0.00120257
0.00098396115
0.00079225782
0.00062766552
0.00049302229
0.00038616492
0.0002827613
0.00038882173
0.00047020388
0.00061242655
0.00079617224
0.00087964191
0.0011320835
0.0024940213
0.00210045
0.0019618883
0.0019016251
0.0019242706
0.001943721
0.0019332734
0.0018826464
0.0017502901
0.0015142058
0.0012296565
0.00097047423
0.00076425504
0.00060296056
0.0004799763
0.00038302611
0.00032143825
0.00054638029
0.00054458772
0.00065129818
0.00084656425
0.00096388327
0.00097784185
0.0010369663
0.0046328641
0.0019488527
0.0016676203
0.0016351762
0.0016824819
0.0017683699
0.0018545107
0.0019025605
0.0018631604
0.0017352931
0.0015291304
0.0012650843
0.00098859578
0.00075386375
0.00057965197
0.00045830404
0.00036758235
0.00039306754
0.00069850813
0.00063502114
0.00073424501
0.00091188
0.0010413155
0.0010951495
0.00075918586
0.0015367368
0.0012651528
0.001312437
0.0014137663
0.0015355414
0.0016451155
0.0017295643
0.0017833314
0.0017674339
0.0016507265
0.0014551854
0.0012184418
0.00097231034
0.00074417646
0.00055986306
0.00043303146
0.0003515783
0.00053380371
0.00078897096
0.00075107756
0.00084540047
0.00097607887
0.0010728257
0.0012053833
0.00090032872
0.00063475502
0.00033600241
0.00063045733
0.0011056749
0.0015525154
0.0018489666
0.0019543194
0.0018961059
0.0017767788
0.0016381395
0.0014834648
0.0013006196
0.0010955439
0.00088669175
0.00069550008
0.00053036818
0.00040749823
0.0003450639
0.00073264466
0.00084282314
0.00085671726
0.00094112519
0.00099112316
0.0010702967
0.001225934
0.00092457604
0.0005192396
0.00013663433
0.00020339757
0.00027061639
0.00036942289
0.00047683081
0.00058787384
0.0007495198
0.00099239358
0.0012579936
0.0014321728
0.0013503343
0.0011306726
0.00094953448
0.00077924219
0.00061841722
0.00047825908
0.00037214522
0.00038753692
0.00081090822
0.00086106043
0.00090150596
0.00094614512
0.00095197761
0.0010396231
0.0011379708
0.00088053412
0.0005160887
0.00023226786
0.00024735226
0.00040111616
0.00053262039
0.00058232589
0.00057985702
0.00055272094
0.00052002391
0.0004901826
0.00047712626
0.00049313411
0.00056271089
0.00069750696
0.00071264092
0.00055479232
0.00041534012
0.00032989167
0.0005451714
0.00076777884
0.00082340009
0.0008535569
0.00085731738
0.0008747652
0.00095706527
0.00098355205
0.00079099125
0.00046123184
0.00068536459
0.00022648664
0.00034301706
0.00060708613
0.0007312913
0.00075619598
0.00073695261
0.00070512018
0.0006747264
0.00064929702
0.00060553154
0.00052976883
0.00043791276
0.00036756382
0.00035414773
0.00039623865
0.00035783134
0.00031124095
0.00063226172
0.00069123742
0.00072243827
0.00072264611
0.00072681227
0.00077044263
0.00082357846
0.00081580791
0.00067685203
0.00038276325
0.00033557677
0.00026987856
0.00050611964
0.00084408074
0.00096776089
0.00097552017
0.00093094295
0.00089281702
0.00088458075
0.00086993646
0.00079644321
0.00067972622
0.00056656473
0.00056791974
0.00057928842
0.00028531851
0.00029089059
0.00040159274
0.0005515501
0.00057716541
0.00057766104
0.0005758758
0.00060116289
0.00064526307
0.00067273318
0.0006624691
0.00053342046
0.00028206113
0.00027561991
0.00033439593
0.00069080795
0.0010813425
0.0012361473
0.0012162898
0.0011510152
0.0011383934
0.0011642583
0.0011377501
0.0010216204
0.00086246681
0.00073324006
0.00055076484
0.00026998402
0.00024719913
0.00029879856
0.00041770415
0.00044072839
0.00044650868
0.00044547
0.00045987815
0.00048843879
0.00051907208
0.00053496126
0.00051517863
0.00037885486
0.00019961125
0.00024545735
0.00040061919
0.00085580422
0.0013217987
0.0015367986
0.0014583688
0.0014043507
0.0014422453
0.0014804418
0.001423081
0.0012662897
0.0010579041
0.00091697855
0.00042307389
0.00038292629
0.00035403762
0.00030828572
0.00032049463
0.00033527929
0.00034413018
0.00035796594
0.00037595483
0.00039270166
0.00040823177
0.00041027854
0.00037115943
0.00024597673
0.00014691024
0.00053156251
0.00049268356
0.00098178344
0.0015736875
0.0018268565
0.0016967234
0.001690163
0.0017617676
0.0017734762
0.0016892562
0.0014942236
0.0012531469
0.0011090025
0.0003815784
0.00043690922
0.00055602938
0.00063653012
0.00052678388
0.00037516119
0.00031410672
0.00030862358
0.00031712104
0.00032333292
0.00032026322
0.00029883811
0.00024591926
0.00016051975
0.00012134476
0.0002610286
0.001093341
0.0010407595
0.0017946208
0.0020455082
0.0019484784
0.0019789357
0.0020162944
0.0020040386
0.0019038808
0.001678451
0.001451612
0.0011493336
0.00037500582
0.00047798624
0.00060744246
0.0007166549
0.00079445721
0.00087034035
0.00080831399
0.00056572432
0.00038221352
0.00029644262
0.00025502018
0.00021849484
0.00016695929
0.00011917664
0.00010057295
0.0010215225
0.0019155244
0.0021624644
0.0021974707
0.0022247453
0.0021803814
0.0021494441
0.0020226289
0.0017862863
0.0016157796
0.00099356511
0.00037964286
0.00049595678
0.00064819168
0.0007912572
0.0008830616
0.00091723601
0.0009100977
0.00089315066
0.00082939255
0.00064138439
0.00042488711
0.00025447992
0.00016404583
0.00011717882
0.00012518527
0.00099230545
0.0018744582
0.0022127223
0.0023927133
0.0024042975
0.0022737064
0.0022108148
0.0020220622
0.0018322347
0.0017404315
0.0007718747
0.00039691791
0.000498989
0.00065762154
0.00083512602
0.00095941386
0.00099923079
0.00095646578
0.00085331114
0.00073181151
0.00061198897
0.00050246207
0.00039485935
0.00030417706
0.00035064514
0.00026832707
0.0016043481
0.0022381564
0.0024700542
0.002470831
0.002340905
0.0021967099
0.0019362223
0.0018298468
0.0017803742
0.00058161259
0.00042229294
0.00051503067
0.00065177485
0.00083324068
0.00099754105
0.0010677218
0.0010319469
0.00092231454
0.00080343397
0.0007036353
0.00064864956
0.00064718569
0.00072057061
0.00083410995
0.0010497845
0.0020926524
0.0024285318
0.0024771809
0.002368166
0.002153669
0.001832663
0.0017700659
0.0016559499
0.0004701366
0.00044917613
0.00054798881
0.00067515657
0.00082714167
0.00099168347
0.0011139634
0.0011445819
0.0010872884
0.00099895377
0.00092863834
0.0008869059
0.00088460749
0.00088626077
0.0016966635
0.0016791116
0.0022432689
0.0024825045
0.0023966611
0.0020964796
0.0017745501
0.0016605838
0.0014252173
0.00040908294
0.00046970359
0.00058399143
0.00072897014
0.00087141141
0.001001961
0.0011244642
0.001228627
0.0012662258
0.0012329155
0.0011519189
0.0010479665
0.00096526386
0.00092416392
0.0019016609
0.0023347706
0.0024576742
0.0020856762
0.0017675376
0.0015066596
0.001121753
0.00034635051
0.00046329307
0.00059584872
0.00076137395
0.00094365901
0.001101582
0.0012101973
0.0012833938
0.0013345846
0.0013241831
0.0012166546
0.0010444158
0.00083047747
0.002068699
0.0024702611
0.0021870427
0.0018675939
0.0013060492
0.00076882278
0.00025861314
0.00040749236
0.00057082309
0.00073786147
0.00092499731
0.0011356204
0.0013206228
0.001410046
0.0013559088
0.0012108487
0.0011166335
0.0011556696
0.0027710117
0.002527986
0.0021750829
0.0011120137
0.0004482202
0.00017669917
0.00025427574
0.00041149296
0.00058315412
0.00072635035
0.00084079482
0.00092701559
0.00095636871
0.00087955919
0.0007267008
0.0015822122
0.0038598562
0.00094057476
0.00026534828
0.00013673338
0.00014417169
0.000198521
0.00028640557
0.00038535165
0.00045362838
0.0004735643
0.00045985703
0.0008395947
0.00010985043
0.00019313078
0.00021646956
0.00024433369
0.00031645795
0.00072578579
0.0030260368
0.0011224802
0.00062393563
0.00051664941
0.00039147936
0.00028991121
0.00023284988
0.00015429128
0.0002307556
0.002223453
0.0019132451
0.0018653152
0.0017691098
0.0016010893
0.0013429164
0.0010571456
0.00075586759
0.00047967641
0.00028623996
0.00017997939
0.00011938355
0.00032104401
0.001859166
0.0047171885
0.00238827
0.0023792909
0.0023427017
0.0022209458
0.0020304366
0.0018136363
0.0015813004
0.0013371416
0.0010710967
0.00078330488
0.00051491165
0.00030423061
0.00015605467
0.00025828867
0.0011353788
0.0011954405
0.0043243247
0.0030567762
0.0027594311
0.0025121238
0.0022715433
0.0020489058
0.0018507344
0.0016682566
0.00149233
0.0013147976
0.0011248091
0.000906575
0.00066624789
0.00043364579
0.00023575548
0.0001882412
0.00051778624
0.0011037987
0.0016923958
0.00473323
0.0031211246
0.0026748904
0.002356682
0.0021105287
0.0019282864
0.0017777981
0.0016360578
0.0014826485
0.0013240273
0.0011723645
0.0010291512
0.00087792118
0.00070126109
0.00050139435
0.0003030407
0.00018288711
0.00027221672
0.00071422612
0.0012723244
0.0017378932
0.0071051186
0.0031716235
0.0024237194
0.0019784505
0.0017079172
0.0015715851
0.0015325485
0.0015210981
0.0014715787
0.0013552474
0.001192707
0.0010273194
0.00088807861
0.0007711498
0.00065103913
0.00050484302
0.00033723832
0.00020471132
0.00021106334
0.0004976162
0.00099398723
0.0014564334
0.0018347069
0.0033968379
0.002010131
0.0013833443
0.0010909182
0.001013238
0.0010897852
0.0012487908
0.0013865022
0.0014151401
0.0013296109
0.0011487666
0.00094229519
0.00077064318
0.00065170493
0.00056362295
0.00046545366
0.00034395236
0.00024470104
0.00022375762
0.00039470674
0.000834768
0.001272391
0.0013412167
0.0025307866
0.0031921352
0.0015056777
0.00083681246
0.00057458827
0.00055846829
0.00066337659
0.00089614063
0.0011716724
0.0013786301
0.0014303288
0.0013470891
0.0011508412
0.00091039023
0.00069882142
0.00055498822
0.00047326196
0.00040440698
0.00034158365
0.00031034117
0.00027069644
0.00037531166
0.00074891358
0.0011623718
0.0013222485
0.001419168
0.00068896606
0.00039765656
0.00034020023
0.00038928715
0.00051904344
0.00072408927
0.0010094022
0.0012783914
0.0014423704
0.0014385661
0.0013292613
0.001114516
0.00086750964
0.00064551394
0.00048437539
0.000394717
0.00033635554
0.0003552413
0.00041335838
0.00036998476
0.00042957724
0.00073176556
0.0010877153
0.0013231714
0.0012295943
0.0014437596
0.00030628249
0.00017040042
0.00026299701
0.000387303
0.00050827118
0.0006222647
0.00073772272
0.00088545176
0.0010339853
0.0011347442
0.0011584685
0.0010840888
0.00092206289
0.00073165831
0.0005553293
0.00041586039
0.00032618086
0.00027948364
0.00040811433
0.00054548853
0.00051646162
0.00054233352
0.00075965624
0.0010449587
0.001303278
0.0012138138
0.00081137163
0.00016028789
0.00029527004
0.00051309113
0.00065729185
0.0006972681
0.00066538449
0.00060273952
0.00054524196
0.00052063474
0.00053383731
0.00057401808
0.00059346276
0.0005671651
0.00048837086
0.00040029741
0.00032201817
0.00025823349
0.00026263079
0.00049100891
0.0006633145
0.00065025858
0.00066202166
0.00080254353
0.0010220284
0.0012526283
0.0011771393
0.00074308933
0.00036592016
0.00050465398
0.00080379712
0.00094743261
0.00093393123
0.00083185095
0.0007055404
0.00058866124
0.00049145184
0.00040626722
0.00031989666
0.00026227513
0.00025851791
0.00027257532
0.00025439054
0.00022316748
0.00019596766
0.00029606001
0.00056390251
0.00070423016
0.00071059772
0.00072400573
0.00082803019
0.0010025975
0.0011743475
0.0010920226
0.00066393867
0.0012697662
0.00027201244
0.0008025668
0.001137711
0.0012247388
0.0011336472
0.00097454664
0.00082794383
0.00072848202
0.00066207097
0.00057902926
0.00044255542
0.0002907204
0.00017810196
0.00013065157
0.00015170677
0.00014939654
0.00017996495
0.00034646663
0.00056759336
0.00066788216
0.00068291875
0.00071578644
0.00081807031
0.00096356259
0.0010680119
0.00093857568
0.00053749271
0.00048723443
0.00051286301
0.0011293445
0.0014683091
0.0014740563
0.0013142935
0.0011276843
0.00099580675
0.00093223101
0.00088821072
0.00078391364
0.00058120708
0.00035475951
0.00022293825
0.00029886129
0.00024863256
0.00012929966
0.00020693639
0.00035432095
0.00049832703
0.0005655015
0.00060113642
0.00066728195
0.00077681388
0.00088922844
0.00091890481
0.00074516233
0.00037160604
0.00034818243
0.00042546536
0.0014777738
0.0017880322
0.0017061081
0.0014997367
0.0013127276
0.0012163109
0.0011936238
0.0011655444
0.0010269001
0.00074399774
0.00042797826
0.00026839355
0.00011233763
0.00010100452
0.00014673186
0.00021371501
0.00030930683
0.00039314174
0.00045311462
0.00051852141
0.00060772938
0.000708632
0.00077657768
0.00074359212
0.00055164492
0.00028309774
0.0002719431
0.00056808689
0.0017785492
0.0020774239
0.0019347841
0.0017019695
0.0015165038
0.0014441464
0.0014452857
0.0014232605
0.0012542738
0.00089369177
0.00045222155
0.00019943985
0.00019999824
0.00018271091
0.00016058759
0.0001855342
0.00024420168
0.00030938099
0.00038034185
0.00045842515
0.00054080591
0.00060982048
0.00062655203
0.00054678681
0.00035866715
0.00016903124
0.00027201654
0.00080632224
0.0019824827
0.0023566714
0.0021797048
0.0019185081
0.0017050201
0.0016200456
0.0016061051
0.0015672
0.0013999491
0.00096373936
0.00041697312
0.0002462695
0.00031497469
0.00034331339
0.00032198191
0.00026796271
0.00024083748
0.00026813956
0.00033271992
0.0003993204
0.00045188088
0.00047813454
0.00045376251
0.00035904429
0.00021366601
0.0001037842
0.0014220959
0.0020922767
0.0026064131
0.0024481113
0.0021426692
0.0018546913
0.0017077926
0.0016383411
0.0015787603
0.0014024087
0.0009310003
0.00038428412
0.00032527764
0.00045229454
0.00055077382
0.00060070331
0.00057477458
0.0004885084
0.00039780768
0.00034505945
0.00033364791
0.00033398256
0.0003216245
0.00027789554
0.00020028483
0.00012401627
7.9703677e-05
0.002116773
0.0027587678
0.0027442939
0.0023877577
0.0019815076
0.0017137574
0.0015229185
0.0014027474
0.0012572806
0.00083332701
0.00038079084
0.00040320158
0.00054274709
0.00067766585
0.00075955364
0.00076871408
0.00068302215
0.00053433371
0.00038893054
0.00028922723
0.00022247472
0.0001850753
0.000157256
0.00013966269
0.00013962526
6.3908582e-05
0.0015320016
0.0027708148
0.0030481513
0.0026649178
0.0021369632
0.0016949784
0.001327101
0.0011052248
0.001004235
0.0007052863
0.00042235699
0.00048594292
0.00059536283
0.00071996972
0.00079446991
0.00076838373
0.00064589813
0.000479219
0.00032834028
0.00024299255
0.00020305397
0.00019999066
0.00026551739
0.0004485786
0.00045153462
0.0011456268
0.0050218611
0.0026844539
0.0033177357
0.0029880289
0.0023862838
0.0017394817
0.0011693727
0.00080094219
0.00072420226
0.00059749969
0.00049995727
0.00058418673
0.00066419875
0.00076097224
0.0008243411
0.00079517657
0.00066740654
0.00050287063
0.00038217467
0.00033501101
0.0003642388
0.00049116287
0.00077301603
0.0013940518
0.0016495799
0.0023091975
0.0035671292
0.0033347306
0.0027488911
0.0019271331
0.0011565728
0.00061168672
0.00051809151
0.00051161939
0.00057968601
0.00069717576
0.00077769234
0.00085411768
0.00091024469
0.00091212806
0.00084951706
0.00076774574
0.00072911538
0.00076861775
0.00089376534
0.0011053385
0.0014544933
0.0012754166
0.0036833462
0.0037159984
0.0032198733
0.0022960938
0.0013515939
0.00055538427
0.00038165997
0.00043875464
0.00063046206
0.00080479604
0.0009209875
0.0010103082
0.0010797223
0.0011251389
0.0011503839
0.0011811917
0.001228866
0.0013239633
0.0014652869
0.0016851658
0.0015892922
0.0025313517
0.0039402992
0.0038347044
0.0028860548
0.0017901502
0.0006953951
0.00032495426
0.00036051551
0.0006145836
0.00085284876
0.0010337956
0.0011719079
0.0012819206
0.0013711761
0.0014564647
0.0015520705
0.0016573436
0.0017599513
0.0018900112
0.0017355639
0.0025543329
0.0047942119
0.0039609048
0.0025183452
0.0011220772
0.00034326869
0.00025798818
0.00049380243
0.00076502434
0.0010174584
0.0012313237
0.0014135993
0.001561029
0.0016644948
0.0016980362
0.0016531863
0.0015817539
0.0018203961
0.0026942349
0.0052513368
0.0034045462
0.0020346452
0.0005722987
0.00015548877
0.00028361526
0.000498933
0.00075735525
0.0010050464
0.0012150629
0.0013390635
0.0013877155
0.0013810626
0.0014450936
0.001947707
0.0042606721
0.0013431013
0.00010251307
0.00010513159
0.00015308114
0.0002574225
0.0004230583
0.00059881104
0.00069703395
0.00076376143
0.00099474487
0.0028589239
0.00032261952
0.00019161031
0.00024557829
0.00033579734
0.00057443109
0.0046911303
0.0018208839
0.00098807589
0.00078880105
0.00057830554
0.00040352179
0.00028086917
0.0001777047
0.00021092122
0.0033695404
0.0025677265
0.0024098482
0.0022265551
0.0019928458
0.0016957108
0.0013659091
0.00099490997
0.00062463713
0.00035643445
0.00020156862
0.00017650679
0.001065476
0.0035686627
0.0073260247
0.0031813844
0.0030207989
0.0028421737
0.0026072965
0.0023501331
0.0021121548
0.0018791217
0.0016346544
0.001345627
0.00099882476
0.00065151715
0.00035613787
0.00019094424
0.00052357118
0.0018283701
0.0021014621
0.0066694266
0.0039596321
0.0034164446
0.0029672333
0.0025730272
0.0022506824
0.0020080276
0.001829399
0.0016850892
0.0015428202
0.0013690172
0.0011319548
0.00083571706
0.00052082391
0.00026226043
0.00028663025
0.00084568709
0.0017180122
0.0026211704
0.0071171385
0.0040693329
0.0033134472
0.0027347002
0.0022657381
0.0019338945
0.001729576
0.0016077208
0.0015199239
0.0014357461
0.0013440491
0.0012352777
0.0010864569
0.00087619192
0.00061212448
0.00034206148
0.00022434509
0.00045209689
0.0011237887
0.0018791484
0.0026288519
0.011008563
0.0042115943
0.0030572717
0.0022968652
0.0017524311
0.0014168658
0.0012705606
0.0012598077
0.00129907
0.0013105017
0.0012622712
0.0011720035
0.0010697228
0.00095919008
0.00081638773
0.00062224963
0.00039061006
0.00021238831
0.00026938742
0.00074818469
0.0014372704
0.0020643342
0.0027342244
0.0045620814
0.0026269695
0.0016868981
0.0011085647
0.00079532867
0.00069931835
0.00077878266
0.00096632826
0.0011536115
0.001240523
0.0012001891
0.0010754162
0.00093513299
0.00081692519
0.00070826579
0.00057410873
0.00039829393
0.00022116885
0.00021775446
0.00050541155
0.0011297143
0.0017394495
0.0018705358
0.0040208523
0.0044505411
0.0021303229
0.0011334295
0.00063387078
0.00043083378
0.00040285707
0.00045372595
0.00062580265
0.00089671662
0.0011396053
0.0012470113
0.001199402
0.0010396444
0.00084999268
0.00069744806
0.00059265714
0.00049640589
0.00037494363
0.00023139255
0.0002052303
0.00036491642
0.000896119
0.0015017292
0.0017640292
0.0020655056
0.0013232555
0.00062933546
0.00039287995
0.00035612238
0.00036442261
0.00039532497
0.00049197693
0.00067549338
0.00091172936
0.0011177842
0.0012125257
0.0011605966
0.0009979218
0.0007874712
0.00060818915
0.0004929575
0.00041144018
0.00033905239
0.00025478071
0.00021709072
0.0003146963
0.00074712784
0.0013122213
0.0016826688
0.001687424
0.0022356482
0.00036903649
0.0002708327
0.00033489325
0.00045460447
0.00053367253
0.00056757997
0.00056560231
0.00056093476
0.0006051289
0.00068438536
0.00078541765
0.00088367338
0.00091056892
0.00083067701
0.00068040669
0.0005238676
0.00040983914
0.00033239595
0.0003139717
0.00031153239
0.00027365514
0.00034845989
0.00069167964
0.0011790663
0.0015890628
0.001601121
0.001267868
0.00017751113
0.00036599135
0.00063962378
0.00082017822
0.00087021892
0.00082003968
0.00071685922
0.00060154966
0.00050627036
0.00043916758
0.00041368996
0.00042177631
0.00046052696
0.00049036111
0.00046793205
0.00040098105
0.00032457553
0.00026836701
0.00033126519
0.00041831826
0.00039769493
0.00044840352
0.00071725922
0.0011078829
0.0014881355
0.0015142697
0.0011047964
0.00040822535
0.00067777405
0.0010438326
0.001195659
0.0011652286
0.0010354639
0.00087552458
0.00072985243
0.0006134682
0.00051067014
0.00039303306
0.00027876573
0.0002014328
0.00020813927
0.0002468799
0.00025682758
0.00023153036
0.00023679358
0.00039870287
0.00054127687
0.00054107362
0.00058312325
0.00077995816
0.0010820057
0.0013902683
0.0013982517
0.00096733924
0.0018893503
0.00039047173
0.0010840259
0.0014575664
0.0015180863
0.0013881624
0.0011948005
0.0010165169
0.00088983887
0.00080665448
0.00071370631
0.00055095248
0.00034087792
0.00017768817
8.4537836e-05
0.00010760979
0.00014135981
0.00016505977
0.00026518559
0.00048793808
0.00061612943
0.00063171144
0.00068049679
0.00083643398
0.0010721253
0.0012882797
0.0012194282
0.00079221424
0.00072979504
0.00075260873
0.001493453
0.0018334748
0.0017725717
0.0015512039
0.0013261655
0.0011688426
0.0010904886
0.0010408352
0.00092640946
0.00067499024
0.00035831803
0.00018020815
0.00022449077
0.00020146519
9.6994897e-05
0.0001665453
0.0003285835
0.00052066264
0.00060899656
0.00064466954
0.00071884708
0.00086206494
0.0010401041
0.0011490894
0.0009982862
0.00055227355
0.00050109559
0.00065884384
0.0019114992
0.002172903
0.001981881
0.0016872226
0.0014497862
0.0013280012
0.0012994532
0.0012676966
0.0011092662
0.00074741653
0.0003440702
0.00016430664
7.6260387e-05
7.2811689e-05
0.00011520136
0.00020660528
0.00034880931
0.00047234093
0.000542402
0.00061051623
0.00071216827
0.00084205072
0.00095742328
0.00096840159
0.00076268578
0.00042914513
0.0003725585
0.0009019764
0.0022662064
0.0024732921
0.0021843682
0.001822522
0.0015548701
0.0014414447
0.0014164116
0.0013759149
0.0011753305
0.00073128504
0.00031468608
0.00018320544
0.00016625291
0.00013148289
0.00014188798
0.00020866318
0.00030766302
0.00039381375
0.0004718918
0.00056246951
0.00066611519
0.00076200899
0.00080806168
0.00073783976
0.0005030239
0.00024104837
0.00030788281
0.0013680348
0.0025517406
0.0027792061
0.0024257917
0.001976376
0.0016284622
0.0014614445
0.0013984319
0.0013212282
0.001086168
0.00064579063
0.00030895961
0.0002858472
0.00032555433
0.00028352586
0.00022663443
0.00021523623
0.00025738427
0.00032666883
0.00040934144
0.00049368734
0.00056872132
0.00061494303
0.00060101052
0.00049191983
0.00029283417
0.00012818281
0.0024432239
0.0027602379
0.0030954109
0.0027379833
0.0021781008
0.0016925925
0.0013923184
0.0012133542
0.0010847763
0.0008882333
0.00055887582
0.00034621054
0.00041179214
0.00051529452
0.00053343463
0.00047141309
0.00037637474
0.0003182669
0.00030572573
0.00034267843
0.00038487746
0.00041424744
0.00041167267
0.00036092207
0.00025963519
0.00015292565
9.132652e-05
0.0029037255
0.0033710947
0.0031390205
0.0024725661
0.0018107019
0.0013046141
0.00095455169
0.00076995272
0.00065696095
0.00049529144
0.0004096555
0.00050992725
0.00062694159
0.00068438836
0.00064943966
0.0005374072
0.0003980634
0.0002999685
0.00025353964
0.00024250358
0.00023642533
0.00023387577
0.00022372132
0.00023827835
0.00030169864
8.9738781e-05
0.0024402729
0.0035453701
0.0036101391
0.002902726
0.0020632597
0.0013134926
0.00076058323
0.00052240603
0.0004802288
0.00047050557
0.00050378391
0.00060045346
0.00068807081
0.00072990922
0.000671494
0.00052095818
0.00035330213
0.0002402047
0.00019598294
0.00019203601
0.00021182239
0.00026329865
0.00041482266
0.00073324201
0.00084518422
0.0028336836
0.0075971795
0.003651113
0.0041094226
0.0034715279
0.0025125968
0.0015166426
0.00073577517
0.00042145286
0.00039379047
0.00050744176
0.0006182731
0.00071360758
0.0007709175
0.00078790053
0.00071988142
0.00056135938
0.00038657293
0.00029139728
0.00026957825
0.00031667474
0.00045437053
0.00069807546
0.0011392596
0.0020782795
0.0025512724
0.0036795905
0.0046386647
0.0041199475
0.0031714243
0.0019635935
0.00092720916
0.00041864008
0.000372042
0.00053408079
0.00073218846
0.00085587508
0.00091031501
0.00091946994
0.00087420505
0.0007756267
0.00067179268
0.00063465534
0.00070671447
0.00089210897
0.001183159
0.0015709027
0.0021573581
0.0020165765
0.005417712
0.0048460373
0.004004889
0.0026602531
0.0013691553
0.00051342078
0.0003666674
0.00054077181
0.00081413065
0.0010033631
0.0010983922
0.0011377095
0.0011453302
0.001141819
0.0011629931
0.0012528846
0.0014317023
0.0016946494
0.0020104898
0.0024188828
0.0023636624
0.0041363031
0.0057206978
0.0051185175
0.0036220905
0.0021097398
0.00082368831
0.0003996475
0.00049655933
0.00081499768
0.0010967883
0.0012784345
0.0013926141
0.0014790081
0.0015710104
0.0017001374
0.0018842878
0.0021104284
0.0023579925
0.0026494712
0.0025209356
0.0041116067
0.0072957743
0.0052725207
0.0031849636
0.0014510393
0.0005143122
0.00038780967
0.00067911159
0.001035687
0.0013286063
0.0015548224
0.0017465754
0.0019189117
0.0020734847
0.0021870834
0.0022448334
0.0022848614
0.0026590132
0.0043238383
0.007687697
0.0044844015
0.00276491
0.00094759926
0.0002709238
0.00040179095
0.00071893357
0.0010573683
0.0013581571
0.0016103911
0.0017881298
0.0018937591
0.0019585046
0.0021077113
0.0031510254
0.0058051329
0.0023094943
0.00026380427
0.00014208581
0.00022307356
0.0004010594
0.00066232401
0.00091975645
0.0010635279
0.0012120184
0.001672525
0.0044234719
0.00036259532
0.00025404733
0.00035280351
0.0005094173
0.0008427248
0.0068128654
0.0026669967
0.0014479092
0.0011328313
0.0008231738
0.00056283164
0.00037452011
0.0002051145
0.00020406805
0.0047061355
0.0032371064
0.0029488592
0.0026726763
0.0023986529
0.0020880311
0.0017175696
0.0012767104
0.00081165857
0.00045877766
0.00022181794
0.00037233468
0.0024819089
0.0057175487
0.010000571
0.0040298559
0.0037196452
0.0033803588
0.003013606
0.0026765063
0.0023939388
0.0021575599
0.0019260047
0.001633119
0.0012428948
0.00082280386
0.00042422675
0.0003034834
0.00092178091
0.002663362
0.0032264408
0.0091479335
0.0049655099
0.0041648494
0.0034840341
0.0028881566
0.0024286942
0.0021178595
0.0019318468
0.0018213554
0.0017298111
0.0015963793
0.0013649561
0.0010304163
0.00062927518
0.00033561015
0.00047977489
0.0013113384
0.002513015
0.0037418794
0.0097302646
0.0052031836
0.0041554138
0.003284773
0.0025369906
0.0019942171
0.0016723628
0.0015236938
0.0014768435
0.0014665014
0.0014503961
0.001399631
0.0012787151
0.0010568288
0.00073555934
0.00039754308
0.00033048539
0.00074202606
0.0016812584
0.0026539993
0.0036824196
0.015191809
0.0055075085
0.0039606694
0.0028710493
0.002017507
0.0014217164
0.0010997594
0.0010120813
0.001071586
0.0011733698
0.0012357398
0.0012373286
0.0011949519
0.0011135592
0.000969185
0.00074020331
0.00044319056
0.00026737625
0.00043358618
0.0011416884
0.0020427525
0.0028095336
0.0037771659
0.0059606485
0.0035090689
0.0022630529
0.0013958978
0.00085885523
0.00058094451
0.00052104134
0.00062590284
0.00084213587
0.0010487364
0.0011470208
0.0011254166
0.0010412177
0.0009441296
0.00083211892
0.00067448044
0.0004532806
0.00024925116
0.00028041894
0.0007426279
0.0015726989
0.0023334543
0.002502737
0.0057514518
0.0061175075
0.0029747974
0.0016321055
0.00090429156
0.00051270716
0.00039538882
0.00035543356
0.00037928332
0.00053271787
0.00078923783
0.0010225688
0.0011281168
0.0010796516
0.00094343409
0.00080393178
0.00068988331
0.00057449129
0.00042183422
0.00024039497
0.00022396801
0.00047926997
0.0011761855
0.0019505604
0.0023107269
0.0027705338
0.0022558379
0.0010240662
0.00056343142
0.00044272203
0.00041056668
0.00038541819
0.00037959529
0.00041139471
0.00053143443
0.00073620925
0.00094856846
0.001060901
0.0010204281
0.00086890045
0.00069791448
0.00056822636
0.00046955266
0.00036484155
0.00023373335
0.00020069043
0.00032785047
0.00087978918
0.0016176093
0.0021297142
0.0021997618
0.0031915286
0.00098977046
0.00054316721
0.0004954642
0.00058777289
0.00066053083
0.0006660829
0.00061050591
0.00054017873
0.00047438128
0.00046624217
0.00052083105
0.0006300896
0.00077022158
0.00082299677
0.00074482995
0.00060027139
0.00047075759
0.0003755961
0.0003093753
0.00023239584
0.00019954641
0.00028636893
0.0007124018
0.001367511
0.0019378464
0.0020253427
0.0018241856
0.00016845141
0.00045409153
0.00080218996
0.0010147788
0.0010546775
0.00097455874
0.0008338193
0.00067902864
0.00054433802
0.00044659794
0.00037525315
0.0003316634
0.00035682203
0.00044414483
0.00049511775
0.00045774387
0.00037502683
0.00029520528
0.00027100856
0.00027023264
0.0002490999
0.00032805491
0.00067343462
0.0012194135
0.001762672
0.0018758819
0.0015383714
0.00047182392
0.00090206698
0.001325384
0.0014631334
0.0013847615
0.0012064095
0.0010074351
0.00083278552
0.00069786423
0.00058526422
0.00045751086
0.00031184499
0.00018755652
0.0001669162
0.00023449974
0.00028220416
0.0002666767
0.00023126206
0.00028775378
0.00037078814
0.00037334336
0.0004473059
0.00073032336
0.0011650959
0.0016223782
0.0017330575
0.0013193733
0.0028423585
0.00052894321
0.0014176198
0.0017976152
0.0017971472
0.001596126
0.0013513617
0.0011417223
0.00099376385
0.0008947026
0.00079059109
0.00061322561
0.00036941795
0.00018826554
6.3216824e-05
8.0379959e-05
0.00014258127
0.00017240019
0.00022136622
0.00037680464
0.00049857932
0.00052258805
0.00060235221
0.00082854469
0.001170476
0.0015146449
0.001537569
0.0010887129
0.0010962636
0.0010713298
0.0019070102
0.0021911858
0.0020228127
0.0017106032
0.0014335888
0.001254308
0.0011634337
0.001100813
0.00096866772
0.00068756648
0.0003333479
0.00014644186
0.00018459229
0.00014840046
8.2225287e-05
0.00014433437
0.00028526637
0.00047488131
0.00057774242
0.00062240466