/*--------------------------------*- C++ -*----------------------------------*\
| =========                 |                                                 |
| \\      /  F ield         | OpenFOAM: The Open Source CFD Toolbox           |
|  \\    /   O peration     | Version:  2406                                  |
|   \\  /    A nd           | Website:  www.openfoam.com                      |
|    \\/     M anipulation  |                                                 |
\*---------------------------------------------------------------------------*/
FoamFile
{
    version     2.0;
    format      ascii;
    arch        "LSB;label=32;scalar=64";
    class       volScalarField;
    location    "450";
    object      k;
}
// * * * * * * * * * * * * * * * * * * * * * * * * * * * * * * * * * * * * * //

dimensions      [0 2 -2 0 0 0 0];

internalField   nonuniform List<scalar> 
150387
(
0.00029673778
0.00023653959
0.00022399334
0.00019097035
0.00015072067
0.00012510364
0.00012717417
0.00011290418
0.00030880355
0.00047408614
0.00057622285
0.00062280438
0.0006129218
0.00056129426
0.0004646349
0.00034387725
0.00022155867
0.00013368805
9.4011687e-05
8.4658833e-05
8.3873496e-05
0.00052943864
0.00079219001
0.00093872301
0.00097925823
0.0009432912
0.0008630267
0.00076891884
0.00066894737
0.00055531764
0.0004254185
0.00028693852
0.00016505836
9.7442179e-05
9.7839085e-05
0.00021018258
0.00025798446
0.00030404552
0.00069577056
0.00087985136
0.00095805676
0.001012144
0.001049091
0.001029437
0.00094874223
0.00083411247
0.00071715859
0.0006102148
0.00050380368
0.00038608925
0.00025977933
0.00013870636
0.00012817811
0.00022509178
0.00035682874
0.00026666134
0.00036358432
0.00065572217
0.00087027194
0.00099775472
0.0010601963
0.0010639467
0.0010096
0.00092936841
0.00084528579
0.00075825485
0.00066671957
0.00057648112
0.00049028565
0.00039938383
0.00029787888
0.00017025276
0.00016721556
0.00026141326
0.000354569
0.00038974844
0.00031395281
0.00072493489
0.0009085283
0.00098260206
0.0010182809
0.0010494118
0.0010480347
0.00099291026
0.00089274246
0.0007701173
0.00065276977
0.00056074008
0.00048934186
0.00042408497
0.00036229717
0.00029329013
0.00017339652
0.00021139261
0.00029959407
0.00036709898
0.00045924615
0.00044843821
0.00032028453
0.00065512938
0.00080263152
0.00086496466
0.00091020036
0.00095238965
0.00097114764
0.0009534299
0.00090998954
0.00083582402
0.00072178697
0.00059617817
0.00048584769
0.000408683
0.00035515103
0.00031254086
0.00026015982
0.00016884913
0.00026107476
0.0003326121
0.00039691776
0.00050879905
0.00053785897
0.00046540166
0.00022181282
0.00042545613
0.00071411322
0.00074103027
0.00077032353
0.00080434013
0.00084334989
0.00087738243
0.00088084902
0.00083591105
0.00075439008
0.00066201845
0.00054982791
0.00043622632
0.00034619894
0.00028796982
0.00025228517
0.00021327636
0.00016983009
0.0003093303
0.00036613939
0.00044071474
0.000553742
0.00060987754
0.00062764138
0.00041284628
0.00049827484
0.0005633039
0.00060857421
0.00066106072
0.00071019406
0.00074591971
0.00076107302
0.00076079663
0.0007309349
0.0006684943
0.00058000841
0.00048240516
0.00038935249
0.00030779873
0.00024482255
0.00020428919
0.00016941273
0.00018863087
0.00034477133
0.00040494626
0.00049055309
0.00059690836
0.00064899444
0.00074916327
0.00055260409
0.00023838245
0.00015992696
0.00024821788
0.00040325449
0.00055802708
0.00065605781
0.00068824215
0.00069328819
0.00066163305
0.00060617625
0.00054588703
0.00047559752
0.0003990589
0.00032887805
0.00026909355
0.000217668
0.00017736891
0.00014214209
0.00024528572
0.00036850546
0.00044047674
0.00053118988
0.0006134473
0.00067006137
0.00079574741
0.00061473213
0.0002884651
7.7586062e-05
0.00011207077
0.00016068422
0.00022396058
0.00025264332
0.00026939239
0.00027216075
0.00029460032
0.00034625155
0.00039568739
0.00040897551
0.00037124238
0.00031685642
0.00026827185
0.00022725557
0.00018923101
0.00015305194
0.00014083902
0.00029117867
0.00038001053
0.00045391799
0.00053042458
0.00059147368
0.00068159896
0.0007728953
0.00062464647
0.00034935695
0.00012392014
0.00015852744
0.00031899041
0.00041830318
0.00042695697
0.00038317549
0.00031500633
0.0002470615
0.00019751377
0.00017632112
0.00016972624
0.00018105248
0.00021666728
0.00022581635
0.00018572257
0.00015732882
0.00012997545
0.00017793019
0.00029348115
0.00036515987
0.00043048282
0.00048231189
0.0005533647
0.00066179607
0.00070640098
0.0005976454
0.00036016766
0.0001940015
0.00013605531
0.00026869621
0.00048148201
0.00055744024
0.00054060962
0.00046541614
0.00038893879
0.00031572991
0.00026901711
0.00023690822
0.00020290194
0.00016324346
0.00014156521
0.00012511005
0.0001384182
0.00013974425
0.00012424194
0.00021770676
0.00027237969
0.00032644898
0.00037242141
0.00042099529
0.00051236521
0.00060448608
0.000624217
0.00054783216
0.00031824509
0.00015136431
0.00016495259
0.00040524268
0.00062805019
0.00068849642
0.00065022106
0.0005493478
0.00046133057
0.00039599165
0.00035167267
0.00030281114
0.00024879722
0.00019211431
0.00017082598
0.00013325185
9.6304471e-05
0.00011765614
0.00014934452
0.00019528273
0.00023719978
0.00026803212
0.0003043466
0.00037013326
0.00046136048
0.00052972796
0.00054194585
0.00046443076
0.0002426633
0.00012118022
0.00021212689
0.00052526007
0.0007535173
0.00082079262
0.00075872776
0.00064269553
0.00056241787
0.00051112335
0.00045502997
0.00038366916
0.00030712547
0.00024439381
0.00017868374
0.00010200201
9.1177306e-05
0.00012199814
0.00015378381
0.00017247666
0.00019183278
0.00021157424
0.00025734549
0.00032856835
0.00040408348
0.00045343233
0.00045130622
0.00035571507
0.00016571142
0.00010732762
0.00023489496
0.00060814204
0.00086577885
0.00095802381
0.00086363018
0.00075931993
0.00069866462
0.00064651963
0.00057223607
0.00047860022
0.00037594679
0.00030014992
0.00015216094
0.00014557858
0.00013647658
0.00012397548
0.00012466567
0.0001342936
0.0001484149
0.00017932833
0.00023035018
0.00028944064
0.00034369389
0.00037315667
0.00034770688
0.00023815895
0.00011534545
0.00010535501
0.00018224826
0.00064219256
0.0009733371
0.0010799704
0.00096461653
0.0008969289
0.00084761012
0.00076986281
0.00068735382
0.00057635359
0.00044911381
0.00033720848
0.00014085688
0.0001651639
0.00018906684
0.00021343575
0.00017322625
0.0001348873
0.00013150624
0.00015645623
0.00020379416
0.00025105536
0.00028063408
0.00028285516
0.0002360644
0.00014198954
8.7305186e-05
9.6958583e-05
0.00026638889
0.00063142156
0.0010543503
0.001153799
0.0010658016
0.0010398755
0.00097371359
0.00088917337
0.00078873748
0.00065799946
0.00051941675
0.00032291728
0.00014280758
0.00019251494
0.00023496594
0.00027173568
0.00030075022
0.00031157432
0.00026610601
0.00020048513
0.00017727911
0.00017876986
0.00018555745
0.00017813558
0.00013630327
8.9669788e-05
7.5256875e-05
0.00054246081
0.0010679925
0.0011585702
0.0011631133
0.0011570614
0.0010640005
0.00097986724
0.00086268388
0.00071864365
0.00058326574
0.00027977859
0.00015171609
0.00021256937
0.00027665444
0.00033537629
0.00037934548
0.00040100687
0.00040204197
0.00039046945
0.00036311229
0.0002926005
0.00021700223
0.00015375069
0.00011890477
9.5542365e-05
7.3535949e-05
0.00040650761
0.00097516191
0.0011087539
0.0012219656
0.0012233687
0.0011250582
0.0010398124
0.00089213089
0.00076184383
0.00061935506
0.00023581855
0.00018416529
0.00023531905
0.00031205667
0.00039457097
0.00045301488
0.00048113589
0.00047142057
0.00043801499
0.00040203193
0.0003636701
0.00032067159
0.00026739643
0.000198154
0.00013908768
0.00010456333
0.00073231323
0.0010358848
0.0012011326
0.0012266998
0.0011597778
0.001058837
0.00088986141
0.00078168934
0.00061367853
0.00022482676
0.0002413674
0.00028509484
0.0003502887
0.00044091317
0.00051943009
0.00056173274
0.00055740938
0.00052067561
0.00047031334
0.00042264077
0.00038794282
0.00036404945
0.00034299412
0.00029626918
0.00032056409
0.00089381606
0.0010933934
0.0011857098
0.0011601458
0.0010436595
0.00087574745
0.00078221761
0.00057806572
0.00023674736
0.00030925705
0.00035926845
0.00041348466
0.00048578252
0.00057675871
0.00064574368
0.00066681357
0.00063654728
0.00058687466
0.00054315948
0.00050102853
0.0004677186
0.00039407016
0.00025255245
0.00056406031
0.00088280577
0.0011168094
0.001126471
0.0010130446
0.00085798394
0.0007550117
0.00052095773
0.00024463571
0.00036836125
0.00044263322
0.00051398963
0.00057828543
0.00064070797
0.00070517704
0.00075260617
0.00075748482
0.00072115744
0.00065266905
0.0005515913
0.00039726609
0.00021352202
0.00056331545
0.00095017098
0.0010503281
0.0009773963
0.00083848345
0.00069885257
0.00043461918
0.00023997395
0.00039656588
0.0004938679
0.00058723536
0.00067864633
0.00074663299
0.0007777341
0.00078509854
0.00078149827
0.00073595879
0.00062915237
0.00047704993
0.00024919563
0.00054578352
0.00086322395
0.000918747
0.00082526134
0.00060575921
0.00032820452
0.00019915771
0.00036489176
0.0004875942
0.00059180746
0.00069358616
0.00079754521
0.00087678434
0.00089668091
0.00082621557
0.00065657837
0.00044674665
0.0002682096
0.0004093691
0.0007373848
0.00080288526
0.00048038892
0.00022396051
0.00012405049
0.00024254623
0.00038151859
0.00049955137
0.00058030496
0.00062706651
0.00064593772
0.00060879475
0.00050665811
0.00034782099
0.00024550491
0.00054977625
0.00030919873
0.00015159677
9.5823051e-05
0.00010871374
0.00016792414
0.00025010957
0.00031970495
0.00033854417
0.00030104591
0.00021675282
0.00023856247
5.7021525e-05
9.1246182e-05
9.9350136e-05
0.00011149337
0.00014630445
0.0001896881
0.00050719219
0.0004706009
0.00045124128
0.00041479985
0.00032828158
0.00024526141
0.00018538621
0.00014760073
0.00013781381
0.00070003061
0.0010468527
0.001167243
0.0012152277
0.0011919596
0.0010822056
0.00092271199
0.00071399974
0.00048892451
0.00031101425
0.00019173847
0.00012540963
0.00011222871
0.00035606773
0.00073778947
0.0011225524
0.0013923553
0.0015526059
0.0016101588
0.0015785371
0.0014921108
0.0013671707
0.0012145235
0.0010272432
0.00079997573
0.00056474988
0.00035720008
0.00020126573
0.0001770287
0.00036203267
0.00049336796
0.0008192865
0.001254558
0.0014750923
0.0015943494
0.0016266067
0.0016070522
0.001557013
0.00148262
0.0013858993
0.0012685888
0.0011279984
0.00095117793
0.00073865827
0.00051389888
0.00030853354
0.00019140389
0.000272537
0.00047380638
0.00050545309
0.00086900198
0.0012524568
0.0014393313
0.0015348056
0.0015617111
0.0015521066
0.0015164517
0.0014608373
0.0013829044
0.001289621
0.0011890531
0.0010827952
0.00095823099
0.0007986118
0.00060265906
0.0003935093
0.00022904317
0.00023800416
0.00043147038
0.00059327425
0.00053916127
0.00096410873
0.0011495996
0.0012396405
0.0012756505
0.0012806409
0.0012912691
0.0013233503
0.0013519531
0.0013419508
0.0012793428
0.0011789777
0.0010671254
0.00096663539
0.00087375526
0.00076572652
0.00061842124
0.00043435892
0.00026718773
0.00024048363
0.00039858191
0.00062732376
0.00069412681
0.00055052975
0.00092728352
0.00090951576
0.00088641602
0.0008594326
0.00088206192
0.00096776389
0.0010914045
0.0012000476
0.0012431368
0.0012007213
0.0011003505
0.0009628306
0.00084099866
0.00075219308
0.00067830526
0.0005768941
0.00043205843
0.00030232626
0.00025516142
0.00038259962
0.00064783869
0.00078920158
0.00072837097
0.00058038678
0.00087409022
0.00065603614
0.00053908031
0.00048171196
0.00050684356
0.00058515975
0.00073428462
0.00090725209
0.0010522437
0.0011275662
0.0011080228
0.0010157402
0.00087217348
0.00073015481
0.0006285358
0.00056759215
0.0004960584
0.00039925166
0.00033854025
0.0002954372
0.00039626547
0.000665902
0.00085858952
0.00088525359
0.00061458907
0.00033215373
0.00027914612
0.00030008204
0.0003557511
0.00045119464
0.00057467638
0.00071014523
0.0008464991
0.00093161591
0.00097746277
0.00095687515
0.00087443936
0.00075113031
0.00061839462
0.00051232689
0.00045081434
0.00039344681
0.00035861712
0.00038145063
0.00037254015
0.00045547265
0.00070295095
0.00090517007
0.0010042404
0.00076347592
0.00048001925
0.00011439566
0.00017146777
0.00030710332
0.00043819894
0.00053095419
0.0005821358
0.00060933184
0.00062790761
0.00064656287
0.00066763944
0.00067935904
0.00067193828
0.0006293229
0.00055985392
0.0004764129
0.0003970274
0.00034117553
0.00029478534
0.00033794593
0.00044103542
0.00047724175
0.00055874864
0.00075855979
0.00094740313
0.0010799444
0.00086051653
0.0005096403
0.00012960749
0.0003164005
0.00055113945
0.00071042776
0.00076335832
0.00072749654
0.00063483283
0.00051959553
0.00041668351
0.00035223019
0.00032699238
0.00032447347
0.00032666905
0.00031955316
0.00030229773
0.00027544593
0.00024368778
0.00022561941
0.00035112846
0.00051025534
0.00058614332
0.00067261965
0.00082198731
0.00098615887
0.0011062547
0.00091287752
0.00054512427
0.00016502222
0.00050325992
0.00080419717
0.00096950314
0.00099024725
0.00091179239
0.00078259081
0.00063581525
0.00049271343
0.0003649011
0.00025298347
0.00017528468
0.00014755736
0.00015562236
0.00016725485
0.0001702499
0.00016476251
0.0002040815
0.00039030446
0.00056926713
0.00066504264
0.00075007776
0.00087245169
0.0010112194
0.0010896371
0.00091400846
0.0005475161
0.0002796251
0.00023429323
0.00074146567
0.0010684009
0.0011959461
0.0011591619
0.0010337499
0.00088728811
0.00075501271
0.00063409512
0.00050105075
0.00034571926
0.00020567267
0.00011302036
8.4720062e-05
9.3427962e-05
0.00010682953
0.00012614945
0.00022612688
0.00042478189
0.00058850288
0.00068590359
0.00077555186
0.00089208255
0.0010055112
0.0010344553
0.00084642207
0.00049477478
0.00024140593
0.00043616463
0.00096386041
0.0013000648
0.0013804034
0.0012972001
0.0011518146
0.0010173759
0.0009102053
0.00079783378
0.00063664477
0.0004225848
0.00022572666
0.00012969446
9.1173336e-05
0.00011644965
8.6871289e-05
0.00013622847
0.0002579426
0.00042452472
0.00055818089
0.00065899836
0.00076349514
0.00087732459
0.00095812239
0.00093247737
0.00072101807
0.00034645994
0.00020159285
0.00035065605
0.0011656525
0.0014996682
0.0015344979
0.0014235468
0.0012829533
0.0011772715
0.0010921394
0.00097272472
0.00077206762
0.00049272552
0.00024257826
0.00014068507
7.4191937e-05
6.797775e-05
9.9917299e-05
0.00015725294
0.00026180894
0.00038601784
0.00050458737
0.00061759209
0.00073042613
0.00082752002
0.0008664036
0.00079281772
0.00057003222
0.00030095474
0.00016897486
0.00043318989
0.0012939394
0.0016550462
0.0016640115
0.0015464847
0.0014186662
0.0013299867
0.0012427803
0.001107364
0.00087306613
0.00054295718
0.00024517286
0.00012947615
0.00012897609
0.00011391142
0.00011320342
0.00015608157
0.00023875154
0.00034474653
0.00046377102
0.00057881114
0.00067549451
0.00073654885
0.00072775936
0.00061499558
0.00039458998
0.00019450733
0.00014087172
0.00044696744
0.0013299633
0.0017721918
0.001773118
0.0016636947
0.0015323796
0.0014317805
0.0013281131
0.0011693484
0.00091596744
0.00056018355
0.00024497477
0.00019283678
0.00022835171
0.00022185464
0.00019825022
0.00018947034
0.00022327848
0.00030923173
0.00042016977
0.00051944516
0.00058261428
0.00059929866
0.00055166177
0.0004266066
0.00024807747
0.00012015806
0.00048714776
0.0012812661
0.0018282473
0.0018558467
0.0017676127
0.0016129626
0.0014805046
0.0013275078
0.0011354542
0.00089221834
0.00055673818
0.00026942029
0.00029651083
0.00037728939
0.00041430321
0.00041224986
0.00038594256
0.00035908766
0.00035509303
0.0003826045
0.00042107654
0.00044181516
0.00042608188
0.00036380799
0.00025831158
0.00014736565
9.0461768e-05
0.0011389459
0.0017744391
0.0019008573
0.0018548901
0.0016594706
0.0014692391
0.0012396809
0.0010188695
0.00081594756
0.00054538996
0.00034120833
0.00041545687
0.00051576959
0.00058715846
0.00060567726
0.00057487853
0.00052039836
0.00044413842
0.00038226429
0.00033321902
0.00029146874
0.0002499558
0.00020075192
0.00015100346
0.00011860299
7.4956982e-05
0.00074950342
0.0015850751
0.0018771916
0.0019083068
0.0016927072
0.0014336996
0.0011127904
0.00085529517
0.00070588701
0.00054184745
0.00045444563
0.00054488953
0.00062900096
0.00070358576
0.00072238927
0.00066390428
0.00055516217
0.00043605511
0.00033341081
0.00026609299
0.00023035136
0.00021934582
0.00022744104
0.0002636856
0.00016842492
0.00024891953
0.00070966374
0.001248331
0.00173498
0.0018992049
0.0017291271
0.0014121604
0.0010019903
0.00068491257
0.00058561817
0.00054413503
0.00057930079
0.00067941447
0.00074095865
0.00080176329
0.00082456243
0.00077229721
0.00065113523
0.00051030142
0.00040518677
0.00035211169
0.00034596811
0.00036684131
0.00040234399
0.00045409345
0.00044408955
0.00077541375
0.0014479901
0.0017756965
0.0017382592
0.001424713
0.00095765432
0.00056311924
0.00046994938
0.0005360719
0.00067890339
0.00080440211
0.0008696077
0.00091749384
0.00093952403
0.00091439646
0.00083854729
0.00074547445
0.00067783074
0.00065125713
0.00064786312
0.00064044589
0.00061882665
0.00055686737
0.000905822
0.001496999
0.0016558654
0.0014390994
0.00099330364
0.00050893616
0.00037442558
0.00050123079
0.00072425404
0.00089615574
0.00099605099
0.0010567831
0.0010880634
0.0010906016
0.0010703509
0.0010423271
0.0010033869
0.00095653065
0.00088269704
0.00077016611
0.00062960825
0.00055133718
0.00096701952
0.00143407
0.0013767769
0.0010735075
0.00052817699
0.00031452328
0.00042394519
0.00068523999
0.00090892617
0.0010631036
0.0011638681
0.001224859
0.0012480556
0.0012417553
0.0012124991
0.0011538914
0.0010435318
0.00087541058
0.00070577549
0.00057989165
0.00099993172
0.0011815341
0.0011310438
0.00061126213
0.00028717923
0.00030443012
0.00053912927
0.00078767461
0.00099447713
0.0011452388
0.001253353
0.0013147926
0.0013190564
0.0012451961
0.0010890035
0.00085395185
0.00068308505
0.00057674494
0.00094260189
0.0011200106
0.00075868382
0.0002956272
0.00017299398
0.00030591425
0.00050885223
0.00072183207
0.00088685538
0.00099287371
0.0010136495
0.00096417872
0.00084958538
0.00075894608
0.00061324573
0.00096427991
0.00037784582
0.00010132811
0.00010847283
0.000172748
0.00028034756
0.00041963234
0.00052891342
0.00055417048
0.00053780698
0.00046811311
0.00047629993
0.00011194744
0.00012937602
0.00015974616
0.00019497815
0.00023199331
0.00068874282
0.00062821124
0.00059532696
0.00055884117
0.00043743517
0.00031373953
0.00021575887
0.00015328859
0.0001296137
0.00095564589
0.0013550431
0.0014847991
0.0015209832
0.0014821595
0.0013555333
0.001166134
0.00090717407
0.0006091078
0.00036900595
0.00021259404
0.00014112753
0.00024415435
0.00059048033
0.00097071775
0.0014608342
0.0017829582
0.0019258529
0.0019491746
0.0018919088
0.0017945162
0.0016618871
0.0014959967
0.0012787288
0.00099590881
0.00068945218
0.00041136106
0.00021061513
0.0002921475
0.00054007807
0.0007059262
0.0010802768
0.0016581732
0.0019237337
0.0020148493
0.0019873824
0.0019085809
0.0018212601
0.0017368588
0.0016468557
0.0015368752
0.0013893696
0.0011810914
0.00090997043
0.00060985514
0.00032801038
0.00025788175
0.00043790339
0.00070169119
0.0006978538
0.0011274128
0.0016484459
0.0018680537
0.0019032717
0.001827925
0.0017327352
0.0016604426
0.0016111984
0.0015669939
0.0015114963
0.0014371407
0.0013378695
0.0011969907
0.00099435215
0.00073435926
0.00044560461
0.00026631849
0.00036707531
0.00067153689
0.00085773736
0.00073453324
0.0012696378
0.0015122048
0.0016193254
0.0015752273
0.001445327
0.0013328878
0.0012918585
0.0013217883
0.001375229
0.0014004696
0.0013743796
0.0013059726
0.0012174024
0.0011124263
0.0009702042
0.00077204392
0.00052405564
0.00030012636
0.00031368749
0.000607096
0.00091790199
0.00097652317
0.00074467679
0.0012132242
0.0012229344
0.0011313936
0.00095673136
0.00082008521
0.00078697606
0.00086520752
0.001020694
0.0011817117
0.0012723596
0.0012747156
0.0011972436
0.0010892671
0.00098569663
0.00087962199
0.00073918942
0.00054863534
0.00032899819
0.00028726898
0.00051789785
0.00090501695
0.0011062544
0.00097845111
0.00078960369
0.0011340627
0.00090920975
0.00072692271
0.00057241695
0.00048267782
0.00048008793
0.00052210967
0.00063288661
0.00081731619
0.0010126116
0.0011413462
0.0011722088
0.001099808
0.00097421404
0.00085470861
0.00076058081
0.00065999945
0.0005229289
0.00034574
0.00028645104
0.0004433801
0.00084693097
0.0011570882
0.0011740284
0.00084320101
0.00052912827
0.00038691285
0.00036457888
0.00039893173
0.00044110517
0.00048066978
0.00053343804
0.00061861703
0.0007245974
0.00085225263
0.0009659357
0.0010096773
0.00096245385
0.00085019832
0.00072767654
0.00063548975
0.00055452036
0.00046322483
0.00035393281
0.00030012462
0.00041738957
0.00079682258
0.0011555396
0.0012850012
0.0010019717
0.00065433295
0.00012516158
0.00019777249
0.00035380173
0.00053097659
0.00064852257
0.000690601
0.00067485893
0.0006275281
0.00057757002
0.00055653278
0.00056945566
0.00062602845
0.00069414267
0.00071586014
0.00067146211
0.00058750185
0.00050908243
0.00043806762
0.00039335345
0.00036804102
0.00034594738
0.0004569236
0.00079225146
0.0011417748
0.0013364379
0.0011080536
0.00067893658
0.0001331998
0.00037968329
0.00067642528
0.00088532162
0.00097204771
0.00095301473
0.00085946092
0.00072503706
0.00057981715
0.00044844381
0.00035130536
0.00030952726
0.00031842028
0.00037110312
0.00041381107
0.00041178022
0.00037600767
0.00032587464
0.00034608078
0.0004105634
0.00044361779
0.00056751321
0.00084367655
0.001143934
0.0013426495
0.0011572086
0.0007156826
0.00017463971
0.00063954923
0.0010162931
0.0012140231
0.0012443173
0.0011631151
0.0010260085
0.00087338338
0.00072151253
0.00056593051
0.0003990665
0.00024618508
0.00015197675
0.00014376478
0.00019218725
0.00023726354
0.00024588445
0.000241572
0.00035107275
0.00049795271
0.00058267004
0.00071105762
0.00092338821
0.0011610949
0.0013183835
0.0011558697
0.00072667435
0.0003734471
0.00027997189
0.00096559702
0.0013498545
0.0014887549
0.0014472728
0.0013137509
0.0011580068
0.0010174008
0.00088639376
0.00072865372
0.00051562395
0.00028979647
0.00014200373
7.0469856e-05
7.9943424e-05
0.00012325116
0.00015376762
0.0002235114
0.00041805819
0.00060038652
0.00070866319
0.00082814886
0.00099398108
0.001173247
0.0012643725
0.0010776288
0.00066996452
0.00031561183
0.00058863823
0.0012457693
0.0016223046
0.0016937866
0.0015910593
0.0014323496
0.0012899777
0.0011769413
0.0010539007
0.00086077271
0.00056854489
0.00026789069
0.00012929946
7.5676953e-05
0.0001018929
7.964381e-05
0.00013447678
0.00027936859
0.0004956845
0.00066162191
0.00077258614
0.00088911256
0.0010283485
0.0011516176
0.0011652117
0.00094114564
0.00047535167
0.00025534168
0.00048413737
0.0014812574
0.0018446585
0.0018506759
0.001701756
0.001534655
0.0014137787
0.001316976
0.0011799768
0.00093439224
0.0005651578
0.00023612129
0.0001108147
5.8849752e-05
5.9679678e-05
9.5098775e-05
0.0001811681
0.000342563
0.000521858
0.00066087507
0.00077704496
0.00089615414
0.001010148
0.0010749616
0.0010160693
0.00075900127
0.00041703881
0.00020736845
0.0006048362
0.0016323663
0.0020150287
0.0019797901
0.001796928
0.0016131454
0.0014879086
0.0013718528
0.0012009834
0.00091388293
0.00051768524
0.00022997501
0.00015082399
0.00012967307
0.00010051231
0.00012490502
0.00021534137
0.00035549951
0.00049889252
0.00062704325
0.00074491544
0.0008511877
0.00092527536
0.00092722899
0.0008036851
0.00052394572
0.00025027978
0.00016334281
0.00059767237
0.0016869234
0.0021467169
0.0021015652
0.0018889709
0.0016586307
0.001485311
0.0013154612
0.0011025592
0.00081640654
0.00047361734
0.00026816745
0.00027752485
0.00027919292
0.00022008455
0.00019003224
0.00022724416
0.00032659614
0.00045143182
0.00057231208
0.0006730391
0.00074303602
0.00076559444
0.00071345615
0.00056053494
0.00032116744
0.00013767671
0.00066612357
0.001649336
0.0022276771
0.0022229139
0.0019917353
0.0016867183
0.0014245315
0.0011644455
0.00091796036
0.00069699017
0.00047209052
0.00036436571
0.0004478634
0.00049556658
0.00045722965
0.00038376137
0.00033970303
0.0003559496
0.00041585776
0.00048975864
0.00054716819
0.00056932349
0.00054425177
0.00046182339
0.00032369627
0.00017179595
9.8113758e-05
0.0014936827
0.0022094196
0.0023309352
0.0021170518
0.0017329612
0.0013445569
0.00097591975
0.00072015789
0.0005977575
0.00050798252
0.00049909505
0.00060406411
0.00067276394
0.00066316432
0.00058302031
0.00048564301
0.00041562833
0.00037980401
0.00037319515
0.00037060743
0.00035425552
0.00031504776
0.00026097238
0.00021502005
0.0001975671
9.2290739e-05
0.001037774
0.0020385894
0.0023735074
0.0022568612
0.0018354211
0.0013223688
0.0008367699
0.00057886451
0.00053526026
0.00057542162
0.0006455263
0.00074292596
0.00080163604
0.00079376853
0.00069075115
0.00053208854
0.00039626644
0.00031107173
0.0002726787
0.00026111535
0.00026045942
0.00028702211
0.0003370268
0.00040196845
0.00029447498
0.00048378257
0.00099140988
0.0016390002
0.0022641081
0.0023574288
0.0019932126
0.0014039549
0.00080277871
0.00051517668
0.00049426025
0.00064124628
0.00078238888
0.00087970833
0.00092489554
0.0009174316
0.00082450237
0.00065471037
0.00048123495
0.00038372683
0.00035679299
0.00038864967
0.00045895293
0.00053790009
0.00059234437
0.00063516501
0.00062054574
0.0010366376
0.0019247568
0.0023034088
0.0021404349
0.0015766003
0.00089374245
0.00050471402
0.00047114217
0.0006781144
0.00088973871
0.0010168975
0.0010687438
0.0010670047
0.0010079975
0.00089854676
0.00078310153
0.00072140922
0.00073955372
0.00081247261
0.0008883402
0.00091488824
0.00087283758
0.00077366272
0.0012238959
0.0019818034
0.0021428114
0.0017525657
0.0010811431
0.00054869036
0.00044789259
0.00066331327
0.00094022702
0.0011285904
0.0012220164
0.001252702
0.0012426962
0.0012119995
0.0011893784
0.0012002335
0.0012387594
0.0012706093
0.001231616
0.0010842869
0.00088514928
0.00076832521
0.0012781044
0.0018928013
0.0017771409
0.001297857
0.00065229196
0.00042150979
0.00057835304
0.00089539042
0.0011594763
0.0013241917
0.0014165528
0.00146628
0.0014942302
0.0015181932
0.0015395211
0.0015272055
0.0014318253
0.0012192014
0.0009952104
0.00078603324
0.0013347484
0.0015348558
0.0014367905
0.00079771993
0.00041222397
0.00042615379
0.00071603859
0.0010339384
0.0012762509
0.0014415683
0.0015576362
0.0016285549
0.0016485177
0.001592938
0.0014432483
0.0011594091
0.0009577869
0.00079300678
0.0012140925
0.0014323366
0.00097631808
0.00045476786
0.0002582167
0.00041115047
0.00069258142
0.00096231799
0.0011588622
0.0012822786
0.0013146247
0.001266843
0.0011358797
0.0010590914
0.00085710715
0.0012144795
0.00056360607
0.00018142203
0.00013003396
0.00023269647
0.00039911272
0.00059194854
0.00073250379
0.00075049917
0.00073917502
0.0006596353
0.00066717642
0.00012420921
0.00015642273
0.00020205847
0.00025635938
0.00031915981
0.00087997938
0.00080478539
0.00076417604
0.00071517014
0.00056322712
0.00040171039
0.00026481505
0.00016890708
0.00012736779
0.0011945522
0.0016564089
0.0017932076
0.0018195424
0.001777636
0.0016458548
0.001427893
0.0011210477
0.00075484771
0.00045227474
0.00023425647
0.00022700304
0.0004637572
0.00081426514
0.0011920855
0.0018084635
0.0021730405
0.0022958463
0.002277793
0.0021902048
0.0020722103
0.0019329359
0.0017630166
0.0015281306
0.0012014963
0.00083368573
0.00047373115
0.00026783945
0.00046380447
0.00075080907
0.00093871423
0.0013303197
0.002081847
0.0023857918
0.0024268254
0.0023106243
0.0021536827
0.0020200385
0.0019255071
0.0018501424
0.0017614616
0.0016240469
0.0014008238
0.0010865011
0.00071095192
0.00037530831
0.00038186833
0.00066089146
0.00097841542
0.00091515932
0.0013861229
0.0020961006
0.002356679
0.002315519
0.0021053311
0.0018821963
0.0017307599
0.0016639785
0.0016497928
0.0016441833
0.0016148975
0.0015422526
0.0014032904
0.0011746022
0.00085666043
0.00049862869
0.0003464104
0.00056776428
0.00097834583
0.0011780116
0.00095518532
0.0015724161
0.0019366616
0.0020896701
0.0019711631
0.0016922984
0.0014151079
0.0012454914
0.0012168195
0.0012914452
0.0013933029
0.0014542329
0.001451481
0.001397345
0.0012992875
0.0011398768
0.00089987929
0.00058884257
0.00035197588
0.00045961494
0.00089222746
0.0012812964
0.0013033059
0.0009530766
0.0015500389
0.0016259628
0.0014866087
0.0011924725
0.00091471524
0.00074020564
0.00070121345
0.00080085031
0.00099558405
0.0011963618
0.0013151015
0.0013218501
0.0012534139
0.0011555184
0.0010333565
0.00086159028
0.00062384332
0.00037361362
0.00037178134
0.00073788077
0.0012414197
0.0014754384
0.0012569544
0.0010017737
0.0014065758
0.0012286725
0.0010019947
0.00077068442
0.00059471507
0.00051716775
0.00050130748
0.00051259876
0.00059818953
0.00079249463
0.0010171792
0.0011756936
0.0012039394
0.0011259091
0.0010110772
0.00089806982
0.0007718597
0.00060296034
0.00038383216
0.00032494038
0.00058241106
0.0011065245
0.0015037469
0.001498073
0.0010788189
0.00078244505
0.00056930805
0.00050623662
0.00051152995
0.0005333967
0.00053602585
0.00051953439
0.00051764299
0.00054942798
0.00065620136
0.0008243239
0.00098229701
0.0010429716
0.00098817766
0.00087363903
0.00076128622
0.00065816335
0.00053980022
0.00037522807
0.00031057486
0.00047242027
0.00096079803
0.0014390038
0.0016020061
0.0012531248
0.00082842816
0.00023491983
0.0002880368
0.00046021967
0.00065137227
0.00077789549
0.00082073664
0.00078814612
0.00070484986
0.0006041087
0.00051549207
0.00048341121
0.00051945628
0.00064079959
0.00075904045
0.00078501817
0.00072057296
0.00062703857
0.00053682375
0.00045458245
0.00035584123
0.00031736462
0.00043402207
0.00086826709
0.001354995
0.001619502
0.0013683991
0.00086578137
0.00012846954
0.00045303148
0.00081567201
0.0010606489
0.0011540412
0.0011257919
0.0010171572
0.00086792813
0.00070810157
0.00055212939
0.00041059151
0.00031525916
0.0002986716
0.00037445033
0.00047820042
0.00051444683
0.00047983908
0.00041326312
0.00036995165
0.0003502351
0.00035060459
0.00048563061
0.00086680328
0.0013026452
0.0015926751
0.0014122558
0.00090563824
0.00019673997
0.00080161524
0.0012432211
0.0014539212
0.0014664485
0.0013591867
0.0011980164
0.0010292262
0.00087087576
0.00071012165
0.00052318746
0.00032528767
0.00017475873
0.00013484238
0.00020548946
0.00029326738
0.00032180154
0.00029628178
0.00032880281
0.0004016322
0.0004647057
0.00063298203
0.0009440207
0.0012976359
0.0015477738
0.0014115234
0.00092093846
0.00048945569
0.00034700176
0.0012092216
0.0016300001
0.0017538772
0.0016789558
0.0015152952
0.0013381295
0.0011833486
0.0010423965
0.00087194977
0.00062991329
0.00035062049
0.00017286389
6.2067044e-05
6.7631548e-05
0.00014172691
0.0001928649
0.00023029887
0.00037232773
0.00052830446
0.00064429833