/*--------------------------------*- C++ -*----------------------------------*\
| =========                 |                                                 |
| \\      /  F ield         | OpenFOAM: The Open Source CFD Toolbox           |
|  \\    /   O peration     | Version:  2406                                  |
|   \\  /    A nd           | Website:  www.openfoam.com                      |
|    \\/     M anipulation  |                                                 |
\*---------------------------------------------------------------------------*/
FoamFile
{
    version     2.0;
    format      ascii;
    arch        "LSB;label=32;scalar=64";
    class       volScalarField;
    location    "450";
    object      nut;
}
// * * * * * * * * * * * * * * * * * * * * * * * * * * * * * * * * * * * * * //

dimensions      [0 2 -1 0 0 0 0];

internalField   nonuniform List<scalar> 
150387
(
7.5037148e-06
1.1054306e-05
1.2049878e-05
1.0784475e-05
8.2718886e-06
6.3399796e-06
4.9121044e-06
3.4807916e-06
3.0458754e-06
2.0237476e-05
2.9756453e-05
3.5075509e-05
3.7416581e-05
3.682828e-05
3.2485173e-05
2.5045791e-05
1.5283147e-05
7.6945259e-06
4.9650046e-06
4.7312788e-06
2.3148337e-06
1.9201996e-05
3.4868722e-05
4.58117e-05
5.0809109e-05
5.151227e-05
4.9645394e-05
4.6865829e-05
4.3393656e-05
3.848592e-05
3.1356951e-05
2.1457464e-05
1.0852112e-05
5.3196094e-06
5.8638544e-06
7.5431599e-06
4.7807182e-06
2.8218858e-06
2.6622111e-05
3.6125296e-05
4.22001e-05
4.7744854e-05
5.2447366e-05
5.4000706e-05
5.2213841e-05
4.8557287e-05
4.4549244e-05
4.0625873e-05
3.596071e-05
2.9188094e-05
1.938336e-05
8.3376653e-06
7.7924678e-06
1.195809e-05
1.6259069e-05
6.6360486e-06
2.5674293e-06
2.1081962e-05
3.3975611e-05
4.3059355e-05
4.8421814e-05
5.0487576e-05
4.9297286e-05
4.6793208e-05
4.405898e-05
4.1412308e-05
3.8787399e-05
3.6212094e-05
3.3356881e-05
2.9029785e-05
2.1842723e-05
1.0409927e-05
9.3454206e-06
1.506556e-05
1.8191012e-05
1.7775436e-05
1.0995338e-05
2.3505669e-05
3.5556371e-05
4.1648977e-05
4.5291691e-05
4.8054588e-05
4.90334e-05
4.6915969e-05
4.2332803e-05
3.6851538e-05
3.188983e-05
2.8759925e-05
2.7201993e-05
2.5788139e-05
2.3961049e-05
2.0047701e-05
9.5698096e-06
1.0343596e-05
1.7179983e-05
1.9804088e-05
2.3841113e-05
2.0575093e-05
8.1552255e-06
1.5488041e-05
2.76034e-05
3.4321397e-05
3.9209528e-05
4.2423421e-05
4.3669588e-05
4.231816e-05
3.9586451e-05
3.5922137e-05
3.0965327e-05
2.6014221e-05
2.1890657e-05
1.9668776e-05
1.8826942e-05
1.831624e-05
1.5903568e-05
7.9825678e-06
1.122735e-05
1.8283139e-05
2.1770264e-05
2.7521694e-05
2.7011886e-05
1.993562e-05
4.2702289e-06
3.5164345e-06
2.3550365e-05
2.9635838e-05
3.2660609e-05
3.4607607e-05
3.6198034e-05
3.7358637e-05
3.6703458e-05
3.3753002e-05
2.9516279e-05
2.5795156e-05
2.1506839e-05
1.7323973e-05
1.4308731e-05
1.287565e-05
1.2498914e-05
1.1137131e-05
6.6039626e-06
1.2328663e-05
1.8999721e-05
2.3807657e-05
3.0263541e-05
3.214737e-05
3.2373693e-05
2.0205572e-05
1.4540554e-05
2.2572779e-05
2.5397509e-05
2.7819388e-05
2.9562084e-05
3.0438994e-05
3.0141054e-05
2.921108e-05
2.7205501e-05
2.4364797e-05
2.08062e-05
1.7189435e-05
1.4032127e-05
1.1457773e-05
9.6352617e-06
8.6738886e-06
7.347042e-06
5.9991049e-06
1.3559503e-05
1.9649545e-05
2.5618403e-05
3.285284e-05
3.5334202e-05
4.1905431e-05
3.0525978e-05
8.0572146e-06
6.8508349e-06
8.7953463e-06
1.3236509e-05
1.8051659e-05
2.0950657e-05
2.1813708e-05
2.281432e-05
2.2173973e-05
2.0187822e-05
1.8078851e-05
1.5652056e-05
1.3082379e-05
1.0978414e-05
9.3702655e-06
8.0399663e-06
6.9481914e-06
5.2697301e-06
7.3908373e-06
1.4500865e-05
2.0382195e-05
2.6983277e-05
3.4171922e-05
3.7754391e-05
4.6486395e-05
3.678508e-05
1.4423188e-05
3.965063e-06
5.557525e-06
8.5868692e-06
1.2219738e-05
1.2047414e-05
1.1110383e-05
8.8942713e-06
7.8709107e-06
8.5772392e-06
9.8390123e-06
1.1147971e-05
1.0970356e-05
9.5160519e-06
8.3122816e-06
7.5160559e-06
6.7385107e-06
5.6651022e-06
4.606546e-06
9.4100064e-06
1.5093854e-05
2.0569735e-05
2.676283e-05
3.3073992e-05
4.0218366e-05
4.7244661e-05
3.9880895e-05
2.1284181e-05
5.9502766e-06
9.1439851e-06
2.283114e-05
2.9566986e-05
2.8173748e-05
2.2788568e-05
1.6157536e-05
1.0564023e-05
7.1627428e-06
5.8643224e-06
5.2574536e-06
5.2428347e-06
6.0573212e-06
6.4399502e-06
5.5955326e-06
5.3635851e-06
4.6088634e-06
5.2264733e-06
1.0096406e-05
1.4574635e-05
1.9539871e-05
2.4420628e-05
3.1504596e-05
4.1185972e-05
4.5661245e-05
4.0640402e-05
2.5312362e-05
4.942322e-06
7.3558173e-06
1.8943049e-05
3.4367846e-05
3.8242717e-05
3.4783692e-05
2.6453664e-05
1.9308204e-05
1.3296773e-05
1.0031339e-05
8.3419193e-06
6.9940465e-06
5.4767949e-06
4.9070767e-06
3.9777952e-06
4.3518312e-06
4.9117024e-06
4.4635684e-06
6.7466695e-06
9.6597237e-06
1.3276157e-05
1.727373e-05
2.1946979e-05
3.0666307e-05
3.9930996e-05
4.2985877e-05
3.9906517e-05
2.3814183e-05
6.144656e-06
9.0738665e-06
2.9202477e-05
4.2057864e-05
4.4083677e-05
3.9005722e-05
2.9175225e-05
2.1453814e-05
1.5954275e-05
1.2794762e-05
1.0361709e-05
8.1959545e-06
5.8628989e-06
4.6244849e-06
2.7586343e-06
2.9255361e-06
4.2829402e-06
4.9984489e-06
6.2227911e-06
8.7734578e-06
1.1192913e-05
1.4476067e-05
2.0510043e-05
2.9688378e-05
3.7540966e-05
3.9901449e-05
3.6392743e-05
1.8789164e-05
4.795075e-06
1.2110804e-05
3.5944624e-05
4.7256952e-05
4.9050016e-05
4.2596843e-05
3.2297731e-05
2.500739e-05
2.0195035e-05
1.6378556e-05
1.2967813e-05
9.8430973e-06
7.3312279e-06
5.2173065e-06
3.4683418e-06
3.026698e-06
4.4830173e-06
5.0955955e-06
6.0748021e-06
7.4175117e-06
9.0437728e-06
1.2960832e-05
1.9892246e-05
2.8311119e-05
3.4589568e-05
3.558175e-05
3.0058976e-05
1.2381189e-05
4.2236651e-06
1.2395332e-05
3.8893599e-05
5.1037704e-05
5.3749963e-05
4.6028916e-05
3.6950177e-05
3.046077e-05
2.541058e-05
2.0709202e-05
1.6280031e-05
1.2024e-05
8.8421889e-06
4.9252997e-06
4.9810658e-06
4.7348843e-06
4.4870475e-06
4.3643088e-06
4.8411263e-06
5.7606936e-06
8.0853464e-06
1.2702347e-05
1.9199893e-05
2.6042299e-05
3.0545421e-05
2.9316261e-05
2.0753067e-05
8.1506344e-06
1.8793106e-06
6.0673806e-06
3.7805705e-05
5.4181445e-05
5.7459497e-05
4.9356104e-05
4.2838075e-05
3.6701699e-05
3.0077645e-05
2.5171418e-05
2.0008057e-05
1.4486162e-05
9.2279864e-06
4.6796661e-06
5.6192917e-06
5.7859609e-06
6.4410678e-06
5.1266946e-06
4.3648238e-06
4.9551636e-06
7.1383714e-06
1.1786936e-05
1.754412e-05
2.2131776e-05
2.4095433e-05
2.0394401e-05
1.130386e-05
5.6532939e-06
3.2413575e-06
5.8414286e-06
3.4477116e-05
5.5749332e-05
5.8573552e-05
5.2468617e-05
4.9178296e-05
4.2320524e-05
3.550662e-05
2.940815e-05
2.3215867e-05
1.6727224e-05
8.1654283e-06
4.8944853e-06
6.9784023e-06
8.179885e-06
9.2731177e-06
1.0246697e-05
1.0038682e-05
7.8844569e-06
6.3944321e-06
7.4003389e-06
9.7026521e-06
1.2151357e-05
1.3070815e-05
1.0014851e-05
6.0721663e-06
5.0681993e-06
2.592575e-05
5.3590918e-05
5.5864799e-05
5.5406851e-05
5.4159545e-05
4.6729775e-05
4.0202294e-05
3.3115373e-05
2.6020679e-05
1.8949307e-05
7.0904718e-06
5.4567061e-06
8.1997393e-06
1.0627089e-05
1.2793505e-05
1.4666326e-05
1.5778475e-05
1.5984434e-05
1.5363562e-05
1.4307517e-05
1.201363e-05
9.9746423e-06
8.360325e-06
7.7566792e-06
7.0110871e-06
3.8876637e-06
1.4987683e-05
4.565835e-05
5.0001833e-05
5.6165521e-05
5.6023349e-05
5.0102349e-05
4.4014938e-05
3.5424617e-05
2.8509744e-05
1.9836496e-05
6.4841289e-06
7.6905493e-06
9.987705e-06
1.3327031e-05
1.6778022e-05
1.9251362e-05
2.0850295e-05
2.0911738e-05
2.0235459e-05
1.9877619e-05
1.9449754e-05
1.8418751e-05
1.6297135e-05
1.1617742e-05
4.9653744e-06
3.6672187e-06
3.0084144e-05
4.314942e-05
5.2567572e-05
5.4812051e-05
5.1714019e-05
4.5933341e-05
3.6807138e-05
3.0053577e-05
1.9037639e-05
7.8217643e-06
1.2416121e-05
1.4203263e-05
1.6943267e-05
2.0998012e-05
2.4342543e-05
2.6597687e-05
2.709778e-05
2.6454401e-05
2.4778038e-05
2.2847446e-05
2.0881795e-05
1.8430383e-05
1.4693976e-05
9.4709196e-06
8.8099226e-06
3.4359096e-05
4.4304882e-05
5.1078911e-05
5.1151167e-05
4.5517798e-05
3.7663239e-05
3.1110589e-05
1.8161417e-05
1.0729728e-05
1.9163068e-05
2.1198688e-05
2.2790656e-05
2.5677123e-05
3.0189628e-05
3.3689294e-05
3.4962661e-05
3.3539692e-05
3.1030433e-05
2.8592401e-05
2.5473574e-05
2.225672e-05
1.5769869e-05
3.3833737e-06
1.705352e-05
3.1267381e-05
4.5217924e-05
4.7651425e-05
4.4056397e-05
3.7334691e-05
3.0895063e-05
1.7138246e-05
1.3166516e-05
2.599959e-05
3.0194235e-05
3.261681e-05
3.4538524e-05
3.6873293e-05
3.980093e-05
4.1491392e-05
4.0783006e-05
3.7963772e-05
3.3281787e-05
2.6129429e-05
1.4714972e-05
4.4399577e-06
1.5018023e-05
3.4801808e-05
4.0398771e-05
4.1222753e-05
3.5798335e-05
2.9174168e-05
1.5155247e-05
1.4964248e-05
3.0550435e-05
3.6840719e-05
4.0763259e-05
4.392527e-05
4.5544927e-05
4.4983021e-05
4.3224592e-05
4.1186268e-05
3.6813022e-05
2.9281066e-05
1.9610866e-05
6.7296968e-06
1.2959434e-05
2.7148548e-05
3.4735784e-05
3.282034e-05
2.5286169e-05
1.2609718e-05
1.3803403e-05
2.9407029e-05
3.7485046e-05
4.2719735e-05
4.6806145e-05
5.0410377e-05
5.2390109e-05
5.1319815e-05
4.5310491e-05
3.2042454e-05
1.6086237e-05
5.6021851e-06
5.442949e-06
1.9357809e-05
2.667311e-05
1.8677483e-05
1.0071496e-05
7.8379943e-06
2.0822201e-05
3.1835487e-05
3.8514075e-05
4.1726209e-05
4.2090075e-05
4.0507624e-05
3.4878592e-05
2.6266817e-05
1.4982988e-05
3.4284524e-06
7.0476338e-06
9.1479673e-06
7.7948206e-06
6.0437703e-06
7.3778758e-06
1.2783869e-05
1.9657201e-05
2.3871736e-05
2.2739085e-05
1.7223802e-05
9.1949462e-06
6.1006634e-06
2.6639029e-06
3.8798989e-06
4.1037661e-06
4.5788588e-06
6.0875361e-06
4.4618422e-06
7.6509157e-06
1.7756989e-05
2.9371111e-05
2.9972554e-05
2.4775742e-05
1.8673939e-05
1.328377e-05
1.2708027e-05
7.40757e-06
1.9835749e-05
5.1551709e-05
6.573745e-05
7.5128214e-05
7.9863815e-05
7.8489769e-05
7.2483645e-05
6.0700588e-05
4.4851581e-05
3.041395e-05
1.8383925e-05
1.1856591e-05
3.5309036e-06
6.1374726e-06
1.0385423e-05
4.748674e-05
7.3332266e-05
9.2607889e-05
0.0001050611
0.00011044922
0.00011048275
0.00010638334
9.9283479e-05
8.8666658e-05
7.3530125e-05
5.5747074e-05
3.7745284e-05
2.3361753e-05
1.0920047e-05
1.0389563e-05
1.8325525e-05
1.3969981e-05
4.6340457e-05
7.0967806e-05
9.1068564e-05
0.00010483025
0.00011344373
0.00011789162
0.00011858762
0.00011583531
0.00011016037
0.0001018077
8.9817776e-05
7.3704465e-05
5.4810367e-05
3.6340045e-05
1.7515774e-05
1.2910496e-05
1.8304355e-05
1.3586334e-05
1.4359074e-05
4.5233157e-05
6.9704056e-05
8.9959762e-05
0.00010400463
0.00011243825
0.00011641722
0.00011739445
0.00011608835
0.0001130498
0.00010853814
0.00010253119
9.4129859e-05
8.1852928e-05
6.5193823e-05
4.5988744e-05
2.5816305e-05
1.8728232e-05
2.345896e-05
2.4897495e-05
1.505417e-05
1.1773978e-05
3.7501969e-05
5.706262e-05
7.4025393e-05
8.6423218e-05
9.5485653e-05
0.00010284375
0.00010814552
0.00011013674
0.00010869206
0.00010488658
9.9762632e-05
9.4692698e-05
8.9101162e-05
8.1055557e-05
6.8179679e-05
5.0350419e-05
3.1385835e-05
2.4660434e-05
2.8733145e-05
3.5632409e-05
2.9773475e-05
1.4867482e-05
2.2782048e-05
3.7037239e-05
5.1119598e-05
6.0936002e-05
6.9108138e-05
7.7346458e-05
8.5846834e-05
9.3480036e-05
9.8283577e-05
9.7589342e-05
9.4857734e-05
8.8543219e-05
8.2599949e-05
7.8135819e-05
7.3469014e-05
6.4351438e-05
4.884602e-05
3.361696e-05
2.618754e-05
3.3377748e-05
4.5249155e-05
4.4055264e-05
3.5599902e-05
1.197904e-05
2.1541391e-05
2.572563e-05
3.125513e-05
3.6346334e-05
4.1399191e-05
4.6454872e-05
5.4149594e-05
6.3225496e-05
7.2281548e-05
8.0000133e-05
8.2024504e-05
8.0684928e-05
7.5200491e-05
6.8660381e-05
6.4064697e-05
6.1265173e-05
5.4763283e-05
4.1998995e-05
3.3237146e-05
2.9019526e-05
3.7655023e-05
5.3288249e-05
5.7077979e-05
5.334145e-05
2.3954017e-05
1.4411957e-05
1.7635897e-05
2.3822532e-05
2.9259368e-05
3.5299347e-05
4.1048481e-05
4.4964793e-05
5.0446572e-05
5.4155117e-05
5.9774111e-05
6.1993006e-05
6.1746961e-05
5.8532729e-05
5.3317318e-05
4.8770223e-05
4.6339584e-05
4.1420561e-05
3.2582253e-05
3.168053e-05
3.3760187e-05
4.3463616e-05
6.0774388e-05
6.7793435e-05
6.8596477e-05
4.2664961e-05
1.4363654e-05
3.8453817e-06
1.5528762e-05
3.227459e-05
4.4620486e-05
4.9918454e-05
4.9013528e-05
4.5295713e-05
4.0074591e-05
3.6387285e-05
3.5353183e-05
3.5855599e-05
3.7483181e-05
3.8657079e-05
3.8555261e-05
3.6784e-05
3.4114257e-05
3.2117355e-05
2.7983233e-05
2.5185762e-05
3.209252e-05
3.9690019e-05
5.1809455e-05
6.8171843e-05
7.7305966e-05
8.053937e-05
5.4904617e-05
2.8810462e-05
9.4319614e-06
3.0513882e-05
5.3280832e-05
6.9107329e-05
7.5214158e-05
7.1586593e-05
6.0177147e-05
4.4563988e-05
3.001387e-05
2.091639e-05
1.6764562e-05
1.5966415e-05
1.6933588e-05
1.881824e-05
2.0546105e-05
2.1204833e-05
2.0696525e-05
1.7444149e-05
2.2598792e-05
3.5326299e-05
4.7551483e-05
6.1504857e-05
7.5771195e-05
8.5639341e-05
8.7928676e-05
6.3714702e-05
3.5990884e-05
6.6979364e-06
4.5168275e-05
7.2413767e-05
8.9287902e-05
9.4496321e-05
8.9947463e-05
7.8125015e-05
6.1807183e-05
4.4458043e-05
2.9497219e-05
1.8005994e-05
1.0543221e-05
7.5800772e-06
7.9965008e-06
9.8968961e-06
1.1689214e-05
1.2467371e-05
1.2661058e-05
2.431339e-05
4.1415233e-05
5.6016721e-05
6.9937979e-05
8.2733066e-05
9.1792388e-05
9.0993355e-05
6.8851166e-05
4.0635756e-05
5.5420578e-06
1.8162399e-05
6.1651466e-05
9.0298187e-05
0.00010510473
0.00010667258
9.8689477e-05
8.557974e-05
7.0425866e-05
5.4657125e-05
3.9021633e-05
2.4306476e-05
1.3095443e-05
6.4548646e-06
4.9442499e-06
5.1783489e-06
6.8751878e-06
7.9583917e-06
1.3282673e-05
2.8611273e-05
4.6670219e-05
6.2001133e-05
7.5627672e-05
8.7551173e-05
9.4435742e-05
9.0175764e-05
6.8698487e-05
4.0990672e-05
1.0764662e-05
3.3384281e-05
7.403624e-05
0.00010359887
0.00011634306
0.00011522961
0.0001058815
9.35471e-05
7.9982999e-05
6.4498756e-05
4.6533813e-05
2.7652815e-05
1.2926298e-05
6.7904853e-06
2.5032748e-06
4.9086369e-06
5.2528821e-06
8.0712614e-06
1.6900199e-05
3.2548729e-05
4.9585954e-05
6.5018678e-05
7.862229e-05
8.917562e-05
9.2911858e-05
8.5162537e-05
6.2789051e-05
2.907139e-05
1.0504755e-05
2.6010037e-05
8.2750905e-05
0.0001132029
0.00012421344
0.00012161048
0.00011284689
0.00010255366
8.9935504e-05
7.3062342e-05
5.2242627e-05
2.9368449e-05
1.2374411e-05
6.6369178e-06
4.4099194e-06
4.1175157e-06
6.1234961e-06
1.0413699e-05
1.9944444e-05
3.4112072e-05
5.0571657e-05
6.6203244e-05
7.9010513e-05
8.6971861e-05
8.6995763e-05
7.6077184e-05
5.3012915e-05
2.879443e-05
9.4494963e-06
2.9729278e-05
8.4723625e-05
0.0001186691
0.00012880202
0.0001264684
0.00011944265
0.00011023662
9.6178392e-05
7.7542336e-05
5.4694598e-05
2.9688339e-05
1.1962888e-05
7.5650208e-06
7.4857396e-06
6.391643e-06
7.1820695e-06
1.1817396e-05
2.1008073e-05
3.4573925e-05
5.0895059e-05
6.5773027e-05
7.5935478e-05
8.0065166e-05
7.6078329e-05
6.2254174e-05
3.9069965e-05
2.0144081e-05
6.5659081e-06
2.2299014e-05
8.0299417e-05
0.00011994024
0.00012981358
0.00012984526
0.00012394976
0.00011388543
9.8841345e-05
7.8524638e-05
5.3937442e-05
2.9305127e-05
1.2953203e-05
1.3589754e-05
1.4899626e-05
1.2902944e-05
1.0985969e-05
1.2057315e-05
1.862997e-05
3.2095912e-05
4.7754391e-05
6.0813558e-05
6.7605307e-05
6.760503e-05
6.0361453e-05
4.5619406e-05
2.5922788e-05
1.2520367e-05
1.5018794e-05
7.0615823e-05
0.00011541683
0.00012661803
0.0001312386
0.00012624653
0.00011551195
9.6808238e-05
7.3496313e-05
5.1086979e-05
2.9963649e-05
1.7000068e-05
2.4325929e-05
2.8325027e-05
2.8048252e-05
2.5462645e-05
2.3323316e-05
2.3755897e-05
2.8526838e-05
3.8181126e-05
4.7827337e-05
5.260172e-05
5.0801847e-05
4.2865254e-05
2.9983491e-05
1.5760007e-05
9.2404748e-06
5.5153673e-05
0.00010271871
0.00011849797
0.00012968467
0.00012507943
0.00011336478
9.0820866e-05
6.6603974e-05
4.7657887e-05
3.2124866e-05
2.7516631e-05
3.8527619e-05
4.4111972e-05
4.5786511e-05
4.3467693e-05
3.8692772e-05
3.5684495e-05
3.3225125e-05
3.3814107e-05
3.4551182e-05
3.436733e-05
3.0382287e-05
2.3065066e-05
1.469386e-05
9.0671291e-06
7.9123867e-06
3.300126e-05
8.1608371e-05
0.00010404547
0.00012298583
0.00012067273
0.00010914269
8.397795e-05
5.9569496e-05
4.4655766e-05
3.7465465e-05
4.4007499e-05
5.4988792e-05
5.9808568e-05
6.1881718e-05
5.9116352e-05
5.162681e-05
4.2945554e-05
3.5710114e-05
3.0470369e-05
2.6225055e-05
2.3518662e-05
2.1651676e-05
1.753425e-05
1.3950083e-05
5.6541085e-06
4.8676271e-06
9.0257446e-06
5.2245159e-05
8.1656292e-05
0.0001086429
0.00011276498
0.00010317885
7.7271011e-05
5.2712257e-05
4.2619831e-05
4.4598289e-05
6.0411257e-05
7.1114867e-05
7.4393056e-05
7.6026681e-05
7.4230543e-05
6.7506853e-05
5.7173455e-05
4.6605781e-05
3.8662605e-05
3.3307676e-05
2.9575252e-05
2.4658886e-05
1.8847296e-05
1.331233e-05
1.075995e-05
2.3434107e-05
5.2899898e-05
8.5097974e-05
9.8926822e-05
9.4795032e-05
7.1365294e-05
4.6656719e-05
3.8365265e-05
5.0552378e-05
7.1559227e-05
8.3530798e-05
8.7514787e-05
8.870153e-05
8.7277067e-05
8.2500345e-05
7.4494726e-05
6.514643e-05
5.6713804e-05
4.9663473e-05
4.2265452e-05
3.3397358e-05
2.369566e-05
2.1882351e-05
2.0048676e-05
5.427627e-05
7.6639695e-05
8.1177278e-05
6.5699239e-05
4.1973536e-05
3.3059549e-05
5.1534287e-05
7.4879926e-05
8.9809786e-05
9.6950915e-05
9.948562e-05
9.8682198e-05
9.5141197e-05
8.9629718e-05
8.2780909e-05
7.3735205e-05
6.2196272e-05
4.785675e-05
3.1678797e-05
2.2448099e-05
1.0807484e-05
2.1359142e-05
4.8267114e-05
5.9110562e-05
5.793796e-05
3.6105206e-05
2.7398442e-05
4.486813e-05
6.8761753e-05
8.7182175e-05
9.8391819e-05
0.00010402951
0.00010533037
0.00010223913
9.5282823e-05
8.5249915e-05
7.2303588e-05
5.568693e-05
3.6492341e-05
2.5830633e-05
1.1848373e-05
1.8770074e-05
3.1720543e-05
4.5717881e-05
2.9969174e-05
2.1622921e-05
3.2330911e-05
5.2975505e-05
7.2989595e-05
8.7481342e-05
9.5865508e-05
0.0001000145
9.9665778e-05
9.4077717e-05
8.2180932e-05
6.4562341e-05
4.1492574e-05
2.3068862e-05
1.111155e-05
1.5227522e-05
3.3160997e-05
2.5461001e-05
1.3743854e-05
1.7322296e-05
2.9696984e-05
4.670718e-05
6.1917757e-05
7.0430701e-05
7.3018308e-05
6.9058468e-05
6.029165e-05
4.703739e-05
3.5873055e-05
1.7377526e-05
1.9641318e-05
9.5667184e-06
9.0141157e-06
1.0072822e-05
1.7544737e-05
2.7478281e-05
3.7461071e-05
4.2045729e-05
3.9652936e-05
3.4082988e-05
1.9825877e-05
7.1416891e-06
3.4960709e-06
7.8619671e-06
9.3521921e-06
1.0189131e-05
8.4324834e-06
9.1007918e-06
1.9506154e-05
3.2282214e-05
3.5632954e-05
2.9779167e-05
2.1954017e-05
1.4916804e-05
1.1900447e-05
7.16843e-06
2.4393035e-05
6.4357618e-05
8.2335708e-05
9.3509959e-05
9.9210746e-05
9.7523911e-05
8.9601979e-05
7.4445763e-05
5.3456809e-05
3.4381876e-05
2.0180028e-05
1.0155575e-05
5.0353281e-06
8.7932187e-06
1.1576042e-05
6.0370978e-05
9.4711568e-05
0.00011744596
0.00013114556
0.00013707254
0.00013721814
0.00013227891
0.00012321905
0.00010936409
8.9370125e-05
6.566364e-05
4.276325e-05
2.0908125e-05
1.4671385e-05
1.4357919e-05
2.1342218e-05
1.5747954e-05
6.2495314e-05
9.7489543e-05
0.00012313342
0.00013815322
0.00014566306
0.00014866776
0.00014840998
0.00014485406
0.00013778578
0.00012690221
0.00011091249
8.9173908e-05
6.4269508e-05
3.6921975e-05
2.08815e-05
2.0407482e-05
2.5793383e-05
1.6721535e-05
1.6073224e-05
6.0099202e-05
9.4785342e-05
0.00011921595
0.00013272403
0.00013972499
0.00014346653
0.00014532152
0.00014539694
0.00014321188
0.0001383012
0.00013040834
0.00011868929
0.00010156024
7.9290273e-05
5.2244154e-05
2.8453032e-05
2.6823864e-05
3.611583e-05
3.5236282e-05
1.8471378e-05
1.3178669e-05
4.8867175e-05
7.7192788e-05
9.7228475e-05
0.00010728371
0.00011284985
0.00011821621
0.00012481364
0.00013102676
0.00013469525
0.00013468004
0.00013097298
0.00012469228
0.00011611286
0.00010377013
8.621084e-05
6.3278167e-05
3.8169826e-05
3.2874534e-05
4.4335177e-05
5.2759012e-05
4.1574555e-05
1.8253409e-05
2.9037659e-05
5.1238189e-05
6.8293766e-05
7.4312431e-05
7.6105113e-05
7.9705929e-05
8.6510099e-05
9.7030662e-05
0.00010894467
0.00011745119
0.00012184829
0.0001199585
0.00011419259
0.00010704016
9.8319214e-05
8.5656406e-05
6.8015264e-05
4.4045909e-05
3.4107737e-05
4.7762337e-05
6.5251021e-05
6.331997e-05
4.6063268e-05
1.3955414e-05
2.6007814e-05
3.4924101e-05
4.1958937e-05
4.6522897e-05
4.8668444e-05
5.1491209e-05
5.4071992e-05
5.7604568e-05
6.704517e-05
8.0979267e-05
9.4017121e-05
0.00010310689
0.00010471079
0.00010049307
9.4268543e-05
8.7847563e-05
7.8975564e-05
6.5638979e-05
4.6493517e-05
3.598337e-05
4.8484341e-05
7.203986e-05
8.0238684e-05
7.0322437e-05
3.0979783e-05
1.9042358e-05
2.1408519e-05
3.0448483e-05
4.0219847e-05
4.8053109e-05
5.2599534e-05
5.2055394e-05
5.0987669e-05
5.1828676e-05
5.848187e-05
6.9254501e-05
7.9054465e-05
8.3542184e-05
8.2612985e-05
7.8357503e-05
7.3731002e-05
6.7262159e-05
5.6958608e-05
4.4250442e-05
3.7342594e-05
4.9823479e-05
7.6484046e-05
9.1580935e-05
8.8318355e-05
5.3546262e-05
1.7236005e-05
3.8204567e-06
1.2997899e-05
3.3640002e-05
5.5816107e-05
7.0928022e-05
7.5625777e-05
7.2469846e-05
6.3182457e-05
4.9613961e-05
4.0730834e-05
3.71588e-05
3.9915252e-05
4.7624143e-05
5.5522202e-05
5.9637161e-05
5.9297917e-05
5.691219e-05
5.1959995e-05
4.4352483e-05
3.9131974e-05
3.9360352e-05
5.3923354e-05
8.16702e-05
9.9509645e-05
0.00010115772
6.9014424e-05
3.2721025e-05
8.9954743e-06
3.5449871e-05
6.4380977e-05
8.6007518e-05
9.7721282e-05
9.9679734e-05
9.2738679e-05
7.8648681e-05
5.9764338e-05
4.1212438e-05
2.6849554e-05
2.0443636e-05
1.9814764e-05
2.5276428e-05
3.2935475e-05
3.8058321e-05
3.9203075e-05
3.5613488e-05
3.2540309e-05
3.6265708e-05
4.4535912e-05
6.4643587e-05
8.9313751e-05
0.00010630423
0.00010902481
7.9590748e-05
4.1725465e-05
6.7240131e-06
5.4313218e-05
8.9053216e-05
0.00011094023
0.00011958967
0.00011758527
0.00010821216
9.4062669e-05
7.6372711e-05
5.6445361e-05
3.6467331e-05
1.9567104e-05
1.0319689e-05
8.9370362e-06
1.3464986e-05
1.9727083e-05
2.350156e-05
2.2180217e-05
2.7821939e-05
4.1228662e-05
5.6471786e-05
7.8035414e-05
9.8387484e-05
0.00011213686
0.0001125194
8.5995348e-05
4.9129616e-05
6.6433664e-06
1.8066822e-05
7.7409576e-05
0.00011250922
0.00013139912
0.00013580102
0.00013000893
0.00011872716
0.00010469243
8.7661386e-05
6.6952277e-05
4.343047e-05
2.2173273e-05
1.0213709e-05
5.2868642e-06
5.3451048e-06
9.6716061e-06
1.2892319e-05
1.6954772e-05
3.2236751e-05
5.2654127e-05
7.154899e-05
9.0705422e-05
0.00010630828
0.00011555158
0.00011168181
8.5708645e-05
5.0992167e-05
1.2284236e-05
4.1435271e-05
9.352468e-05
0.00012919103
0.00014566528
0.00014687448
0.00013923322
0.00012813001
0.00011432232
9.6041726e-05
7.1980773e-05
4.3099728e-05
1.8025573e-05
8.3495204e-06
2.2959969e-06
4.637996e-06
5.885694e-06
9.7724782e-06
2.1377254e-05
4.2471419e-05
6.4691531e-05
8.3329578e-05
9.8973626e-05
0.00011040358
0.00011475782
0.00010634041
7.9854815e-05
3.6822927e-05
1.1710228e-05
3.2018224e-05
0.00010330693
0.00014093996
0.00015553411
0.00015447731
0.00014620427
0.0001354587
0.00012012616
9.8849426e-05
7.0837818e-05
3.8460884e-05
1.4583634e-05
6.726392e-06
4.0872648e-06
4.4024492e-06
7.0653671e-06
1.4297646e-05
3.027857e-05
5.1890949e-05
7.2470285e-05
8.9009752e-05
0.00010149048
0.00010906221
0.00010862366
9.5947511e-05
6.7980111e-05
3.6474661e-05
1.0388035e-05
3.6502523e-05
0.00010582256
0.00014775071
0.00016149347
0.00015945241
0.00015062443
0.00013822831
0.00011958261
9.4346315e-05
6.3953398e-05
3.298279e-05
1.5126075e-05
1.1174935e-05
9.102755e-06
6.9153128e-06
9.8959315e-06
2.0000997e-05
3.6969642e-05
5.6880791e-05
7.4988569e-05
8.8788655e-05
9.7891246e-05
0.00010111705
9.5757324e-05
7.8786586e-05
4.9116395e-05
2.3387825e-05
7.7993271e-06
2.3500208e-05
0.00010036834
0.00014923521
0.00016386068
0.00016248882
0.00015204223
0.00013586105
0.0001113672
8.2807275e-05
5.5227889e-05
3.1261222e-05
2.09485e-05
2.4250033e-05
2.1549036e-05
1.537549e-05
1.4340728e-05
2.1592981e-05
3.7297748e-05
5.6146043e-05
7.2014943e-05
8.2579282e-05
8.7370081e-05
8.5783777e-05
7.6224574e-05
5.7484871e-05
3.1701791e-05
1.330864e-05
1.6345147e-05
8.8698095e-05
0.00014428748
0.00016242655
0.00016391842
0.00015127781
0.00013117409
0.00010057575
6.9911751e-05
4.9223077e-05
3.5890354e-05
3.4512563e-05
4.3838491e-05
4.2893453e-05
3.5271999e-05
2.8116638e-05
2.7594395e-05
3.5828453e-05
5.0909655e-05
6.2997011e-05
7.0010263e-05
7.0420789e-05
6.4757515e-05
5.3183991e-05
3.6320711e-05
1.7369529e-05
9.4864871e-06
6.9151825e-05
0.00013032507
0.00015577894
0.00016313891
0.00014927024
0.00012471503
8.9798954e-05
6.0622508e-05
4.8950036e-05
4.6889891e-05
5.4725564e-05
6.4402149e-05
6.4974185e-05
5.7833863e-05
4.710544e-05
3.9497837e-05
3.905715e-05
4.3279872e-05
4.9438879e-05
5.0974456e-05
4.7772917e-05
3.8195313e-05
2.7398338e-05
1.746288e-05
1.1643898e-05
8.5423742e-06
3.9720044e-05
0.00010549708
0.00014044289
0.00015792329
0.00014694677
0.00011981745
8.2852929e-05
5.772822e-05
5.3693821e-05
6.3335922e-05
7.4443382e-05
8.2728324e-05
8.4055055e-05
7.7689337e-05
6.3950451e-05
4.8911102e-05
4.0001e-05
3.6256185e-05
3.4144966e-05
3.1953955e-05
2.8823771e-05
2.8159476e-05
2.464387e-05
1.9832575e-05
9.2339589e-06
7.4334702e-06
1.164385e-05
6.6217872e-05
0.00011226801
0.00014407845
0.00014230723
0.0001169676
7.8829555e-05
5.6676874e-05
5.5832705e-05
7.2929969e-05
8.9106112e-05
9.7602394e-05
9.9866534e-05
9.6143185e-05
8.4989518e-05
6.872266e-05
5.3916959e-05
4.5477998e-05
4.2500133e-05
4.2928499e-05
4.1722339e-05
3.7302967e-05
2.7718412e-05
1.7470755e-05
1.3584175e-05
2.6284329e-05
7.1878875e-05
0.00011590252
0.00013001462
0.00011392895
7.7533532e-05
5.4763656e-05
5.3697554e-05
7.7489254e-05
9.7307116e-05
0.0001087393
0.00011292706
0.00011143911
0.00010460396
9.3685229e-05
8.2156775e-05
7.3801969e-05
6.9652704e-05
6.6595067e-05
6.0028577e-05
4.7954494e-05
3.1782433e-05
2.6713522e-05
2.4883734e-05
7.2941872e-05
0.00010318579
0.00010391259
7.6834488e-05
5.2774451e-05
4.9239992e-05
7.3226089e-05
9.7726841e-05
0.00011425023
0.00012235991
0.00012413854
0.00012135054
0.00011578442
0.00010947261
0.00010348156
9.6463646e-05
8.574064e-05
6.7903366e-05
4.3743757e-05
2.9832531e-05
1.2844592e-05
2.5699589e-05
6.2995335e-05
7.8474208e-05
7.1856704e-05
4.6490441e-05
4.0011123e-05
6.0625789e-05
8.8534191e-05
0.00011031725
0.00012344279
0.00012968126
0.00013082953
0.00012790822
0.00012201481
0.00011320524
9.9464206e-05
7.8249238e-05
5.0493355e-05
3.5359863e-05
1.3524237e-05
2.1977077e-05
4.0212342e-05
5.833443e-05
3.9469737e-05
2.9735974e-05
4.2146022e-05
6.7947617e-05
9.2897345e-05
0.00011033627
0.00012029074
0.00012502223
0.00012439196
0.00011795842
0.00010441788
8.3510384e-05
5.2948795e-05
3.1049871e-05
1.3089615e-05
1.7256383e-05
4.1174485e-05
3.1027314e-05
1.9642526e-05
2.2149504e-05
3.7865522e-05
6.0047568e-05
7.8823087e-05
8.8993047e-05
9.1891621e-05
8.6985533e-05
7.6271688e-05
5.929016e-05
4.7895896e-05
2.0982674e-05
2.286708e-05
1.2378754e-05
1.1228991e-05
1.0710393e-05
2.1846104e-05
3.5745794e-05
4.7614575e-05
5.2503641e-05
4.7664393e-05
4.0572133e-05
2.3414112e-05
9.0565046e-06
3.8293749e-06
8.6681736e-06
1.0415107e-05
1.1610937e-05
1.0878603e-05
1.0229577e-05
2.1856479e-05
3.6298445e-05
4.0634602e-05
3.4683114e-05
2.5804184e-05
1.6852048e-05
1.25182e-05
7.1546229e-06
2.7289044e-05
7.6281751e-05
9.8140804e-05
0.00011148605
0.00011856616
0.00011675851
0.00010683647
8.8592776e-05
6.3181192e-05
4.012776e-05
2.2265325e-05
1.2455821e-05
7.7989836e-06
1.0436727e-05
1.2788881e-05
7.3041976e-05
0.00011425537
0.00014033478
0.00015494749
0.00016130346
0.00016143479
0.00015585278
0.00014524392
0.00012869024
0.0001045329
7.6024037e-05
4.7611115e-05
2.1274367e-05
2.100316e-05
1.9048962e-05
2.4580212e-05
1.7411313e-05
7.8555444e-05
0.0001230009
0.00015213781
0.00016637208
0.00017188308
0.00017340622
0.00017272694
0.0001691446
0.00016143221
0.00014869747
0.00012938705
0.00010310746
7.229069e-05
3.7773201e-05
2.7354721e-05
2.9976989e-05
3.4284199e-05
2.0144019e-05
1.7771386e-05
7.59972e-05
0.00012028988
0.00014690408
0.00015724052
0.00015988212
0.00016120765
0.00016354612
0.00016586962
0.00016590539
0.00016182507
0.00015294665
0.0001386002
0.00011749503
8.9792944e-05
5.6287613e-05
3.2679251e-05
3.9098444e-05
5.123808e-05
4.7058799e-05
2.2298955e-05
1.464765e-05
6.1290732e-05
9.9226891e-05
0.00012179991
0.00012775601
0.00012676771
0.00012694812
0.00013166775
0.00014007719
0.00014890136
0.00015402223
0.00015324284
0.00014706164
0.00013643938
0.00012065677
9.8460038e-05
7.0412604e-05
4.1700906e-05
4.3848561e-05
6.2754675e-05
7.2331253e-05
5.441279e-05
2.1643728e-05
3.6277234e-05
6.7806582e-05
8.789034e-05
9.168233e-05
8.7678756e-05
8.488142e-05
8.4931892e-05
9.2222795e-05
0.00010592933
0.00012282909
0.00013570311
0.00013973126
0.00013579694
0.0001272813
0.00011549347
9.9054619e-05
7.7272762e-05
5.0402343e-05
4.4361922e-05
6.5984758e-05
8.8193021e-05
8.39625e-05
5.6815439e-05
1.5703783e-05
2.9106789e-05
4.5672772e-05
5.5363706e-05
5.911357e-05
6.2085618e-05
6.088089e-05
6.3634472e-05
6.234963e-05
6.0453697e-05
7.1618837e-05
9.1063624e-05
0.00011027492
0.00012082814
0.000120931
0.00011444372
0.00010521728
9.3333121e-05
7.7567216e-05
5.5156899e-05
4.2429106e-05
6.3697372e-05
9.3689038e-05
0.00010433561
8.7409738e-05
3.7807341e-05
2.4425435e-05
2.8484535e-05
4.0936298e-05
5.3192881e-05
6.2367661e-05
6.7093705e-05
6.3995628e-05
5.861982e-05
5.1122769e-05
5.2639953e-05
6.4471773e-05
8.1856523e-05
9.5941188e-05
0.00010114456
9.8424758e-05
9.1794586e-05
8.3028195e-05
7.1879383e-05
5.4214127e-05
4.325621e-05
6.1266595e-05
9.4433938e-05
0.00011521068
0.00010845499
6.4247395e-05
1.9353231e-05
5.0181933e-06
1.3746904e-05
3.84734e-05
6.4966801e-05
8.2450241e-05
9.1016864e-05
9.1572721e-05
8.2774824e-05
6.9238102e-05
5.1294989e-05
4.0381188e-05
3.8542351e-05
4.7981219e-05
6.3004885e-05
7.4463732e-05
7.7848596e-05
7.516812e-05
6.905337e-05
6.011491e-05
4.9037318e-05
4.5427163e-05
5.9202526e-05
9.5241051e-05
0.00012083342
0.0001218109
8.320886e-05
3.6981962e-05
8.8179611e-06
4.0677651e-05
7.4644259e-05
9.977331e-05
0.00011364895
0.00011704443
0.00011167263
9.9843993e-05
8.290199e-05
6.1433822e-05
4.0433197e-05
2.6969965e-05
2.2499803e-05
2.8412297e-05
4.1567501e-05
5.2035647e-05
5.5254977e-05
5.2068096e-05
4.5451628e-05
4.0853008e-05
4.441239e-05
6.4700566e-05
0.00010041259
0.00012524021
0.00012951658
9.5689376e-05
4.7983377e-05
7.3832532e-06
6.4111457e-05
0.00010495364
0.00013002904
0.00013976588
0.00013781802
0.00012821858
0.00011448037
9.781016e-05
7.7545401e-05