/*--------------------------------*- C++ -*----------------------------------*\
| =========                 |                                                 |
| \\      /  F ield         | OpenFOAM: The Open Source CFD Toolbox           |
|  \\    /   O peration     | Version:  2406                                  |
|   \\  /    A nd           | Website:  www.openfoam.com                      |
|    \\/     M anipulation  |                                                 |
\*---------------------------------------------------------------------------*/
FoamFile
{
    version     2.0;
    format      ascii;
    arch        "LSB;label=32;scalar=64";
    class       volScalarField;
    location    "450";
    object      p;
}
// * * * * * * * * * * * * * * * * * * * * * * * * * * * * * * * * * * * * * //

dimensions      [0 2 -2 0 0 0 0];

internalField   nonuniform List<scalar> 
150387
(
0.0047305991
0.0046298412
0.0035424928
0.0029988461
0.002655563
0.0024106469
0.0028514127
0.0027713289
0.0069767497
0.0058822458
0.004505741
0.0031086594
0.0022236075
0.0014841901
0.0010830566
0.00098261332
0.0011182496
0.0016059466
0.0021774698
0.0027553211
0.003325873
0.0077069873
0.0054294775
0.0027899047
0.000861582
-0.00065965293
-0.0016237058
-0.00208162
-0.002063369
-0.0017066688
-0.001119364
-0.00030194028
0.00060616052
0.0015481803
0.0022421717
0.0035515348
0.0043627222
0.0080456213
0.0069887158
0.0041656484
0.00085949689
-0.0019328312
-0.0039563709
-0.0052500898
-0.0058776889
-0.0059810269
-0.0056580064
-0.005009084
-0.0041256636
-0.0030474692
-0.0018759632
-0.00070988345
0.00013478415
0.001290859
0.0030245508
0.0041022115
0.0083067597
0.007661345
0.0041355377
0.00026589016
-0.0032212006
-0.0058844733
-0.0077030528
-0.0087795381
-0.0092528003
-0.009238625
-0.0088296218
-0.0081001677
-0.0071215515
-0.0059402595
-0.0046597023
-0.0033998491
-0.0025554411
-0.0014691564
0.00062861741
0.0025065862
0.0037342305
0.0081295864
0.0047182879
0.00033340255
-0.0036714068
-0.0068875474
-0.0092047242
-0.010718672
-0.011583533
-0.011931678
-0.011862916
-0.0114571
-0.010767458
-0.0098320463
-0.008679905
-0.00739277
-0.0061017729
-0.0052598598
-0.0042020385
-0.0022251768
0.00011449965
0.0022444432
0.0039269066
0.0092792031
0.0055681071
0.0010380475
-0.0032282391
-0.006773919
-0.0095065015
-0.01148679
-0.012831699
-0.013619711
-0.013947373
-0.013908204
-0.013570595
-0.012971405
-0.012131938
-0.011065011
-0.0098248792
-0.0085519138
-0.0077473675
-0.0066584438
-0.0048292405
-0.0025375176
0.00013102809
0.0027688609
0.0034613204
0.0093583697
0.0061448626
0.0019361852
-0.0023336636
-0.0060965468
-0.009167603
-0.011534159
-0.013292585
-0.014501722
-0.015247262
-0.01559756
-0.01563144
-0.015385281
-0.014872368
-0.014109159
-0.013106655
-0.011902386
-0.010652437
-0.0098877888
-0.0087730463
-0.0070677361
-0.0049118302
-0.0021676115
0.00071010078
0.0028592064
0.0055900621
0.0029131679
-0.00071905886
-0.0044356073
-0.0077504221
-0.010566185
-0.012793339
-0.014482612
-0.01568583
-0.01648147
-0.016953167
-0.017147539
-0.0170551
-0.016631123
-0.015895439
-0.01488819
-0.01366563
-0.012432204
-0.011662094
-0.010516718
-0.0089054688
-0.0068615907
-0.0041742041
-0.001057402
0.0017723817
0.0032007197
0.0037850475
0.0016700366
-0.0014918181
-0.0048824537
-0.0080864602
-0.010823926
-0.013015016
-0.014728341
-0.016051453
-0.017084495
-0.017867434
-0.01842759
-0.018654763
-0.018376667
-0.017622263
-0.016515184
-0.015178581
-0.013917334
-0.01310085
-0.011900167
-0.010318307
-0.008309775
-0.0057160138
-0.0024765161
0.00069816973
0.0027438087
0.0041551553
0.0033533356
0.0014521273
-0.0015904151
-0.0048620998
-0.0079203814
-0.010507452
-0.012618476
-0.01433545
-0.015771753
-0.016979691
-0.018288586
-0.019500603
-0.020360549
-0.020306379
-0.019428875
-0.018079743
-0.016493065
-0.015201056
-0.014242139
-0.012934122
-0.011315341
-0.009309455
-0.0067701298
-0.0035279761
-0.00025161428
0.001805308
0.003610241
0.0023959583
0.00020324149
-0.0029931692
-0.0062687006
-0.0092192205
-0.011638587
-0.013583849
-0.015183726
-0.016583692
-0.017899029
-0.019305857
-0.021005528
-0.02280778
-0.022946836
-0.021542005
-0.019646587
-0.017724034
-0.016329034
-0.015111693
-0.013641411
-0.011938226
-0.0098971029
-0.0073533593
-0.0041646058
-0.00089672289
0.0011428313
0.0019553765
0.0032364745
0.00165972
-0.00090986045
-0.0043095116
-0.0076059409
-0.010475129
-0.012773469
-0.014622507
-0.016192604
-0.017655304
-0.019169393
-0.020946185
-0.023352889
-0.026787736
-0.027163298
-0.024259611
-0.021218652
-0.018900413
-0.017198595
-0.015689421
-0.014043435
-0.012233651
-0.010121348
-0.0075380464
-0.0044263683
-0.0013329315
0.00065225832
0.0017163558
0.0030191192
0.001339932
-0.0017292443
-0.0053615326
-0.0087086578
-0.011508189
-0.013697636
-0.015458085
-0.016982482
-0.018436213
-0.019983792
-0.021899921
-0.025518252
-0.029471026
-0.029759821
-0.026255773
-0.022467716
-0.019645464
-0.017655512
-0.015922329
-0.014144595
-0.012230056
-0.010016306
-0.0073708434
-0.0043314153
-0.0014113124
0.00046031736
0.0012791064
0.0030479559
0.0012766783
-0.0021267415
-0.0060636649
-0.0094871532
-0.012260636
-0.014373461
-0.016051143
-0.017489221
-0.018822622
-0.020120282
-0.021484143
-0.023972147
-0.026397146
-0.028748303
-0.025669476
-0.022184638
-0.019551722
-0.01758196
-0.015789454
-0.013949193
-0.011938481
-0.0096085485
-0.0068983375
-0.0039114169
-0.0013008862
0.00051655574
0.0011817958
0.0037729271
0.0017092453
-0.0020314788
-0.0063239628
-0.0098701841
-0.01268587
-0.014767135
-0.016375081
-0.017700763
-0.01884822
-0.019733526
-0.020362257
-0.021810658
-0.023683459
-0.024635692
-0.022940001
-0.020721488
-0.018765277
-0.017039705
-0.015318047
-0.013465664
-0.011371735
-0.0089354157
-0.00618328
-0.0032791466
-0.00093906085
0.00053190795
0.0010444217
0.0045319235
0.0023813802
-0.0013608638
-0.0060396588
-0.0097688818
-0.012707097
-0.014809133
-0.016376605
-0.017592699
-0.018544086
-0.019005179
-0.018995668
-0.020007263
-0.021083526
-0.021410828
-0.020426402
-0.019064771
-0.017588323
-0.016164864
-0.014555796
-0.012708814
-0.010552896
-0.0080413148
-0.0052745766
-0.0024721372
-0.00039672757
0.00062439429
0.0010696889
0.0053763986
0.0034718066
-5.7693887e-05
-0.005070437
-0.0090504875
-0.012220487
-0.014400379
-0.01597952
-0.017124459
-0.017923144
-0.018031395
-0.017795867
-0.018521829
-0.01926962
-0.019494319
-0.019009396
-0.018030409
-0.016718361
-0.015319794
-0.013705853
-0.011798515
-0.0095861406
-0.0070390257
-0.0042823501
-0.0015839522
0.00028714176
0.0010192942
0.005121093
0.0017836492
-0.0033165546
-0.0075672048
-0.011089577
-0.013421137
-0.015091942
-0.01623601
-0.01693558
-0.016805016
-0.016406828
-0.017061508
-0.017676516
-0.017938588
-0.01775385
-0.017161798
-0.016222315
-0.014967564
-0.013386985
-0.01145165
-0.0091182679
-0.0064455402
-0.0035799861
-0.00082143282
0.0011323923
0.001473378
0.0065984775
0.0042913676
-0.00068872981
-0.0051755637
-0.0091189981
-0.011756939
-0.013633887
-0.014852725
-0.015537069
-0.015309044
-0.014879624
-0.015502228
-0.016057656
-0.016337457
-0.01629287
-0.015906926
-0.015170228
-0.014070951
-0.012571456
-0.010647347
-0.0082941043
-0.0055529394
-0.0025129067
0.00026823136
0.0020759406
0.0020580879
0.0074583645
0.0027032028
-0.0017967353
-0.0061369945
-0.0092672916
-0.011524157
-0.012906314
-0.013691683
-0.013470704
-0.013073544
-0.013741055
-0.014304383
-0.014612138
-0.014639126
-0.014354117
-0.013706088
-0.012645612
-0.011134503
-0.0091410163
-0.0066667611
-0.0037344561
-0.00053419307
0.0024747973
0.0038045025
0.0084294664
0.0061081025
0.0023061014
-0.0021652532
-0.0058280841
-0.0086538041
-0.010354628
-0.011311907
-0.011165781
-0.010853984
-0.011632876
-0.012278329
-0.012657434
-0.012749751
-0.012520818
-0.01190334
-0.010823696
-0.0092016078
-0.0069702554
-0.0041712382
-0.00096913755
0.0020210389
0.0043220963
0.0038494123
0.0089785922
0.0063363372
0.0026103931
-0.0014288752
-0.0048843333
-0.0070954886
-0.0084024899
-0.0083739292
-0.0081280631
-0.0090368868
-0.0097942313
-0.010260503
-0.010400136
-0.010172056
-0.009515072
-0.0083487947
-0.0065603549
-0.0041193163
-0.0012464715
0.0016149641
0.0038566088
0.0049024295
0.0088706324
0.0067893736
0.0035695163
-0.00022923798
-0.0031079404
-0.0050438877
-0.005193382
-0.0049926267
-0.0059879553
-0.0068163343
-0.0073362749
-0.007495646
-0.0072400987
-0.006480099
-0.0051544379
-0.0032257599
-0.00077879398
0.001616901
0.0037294365
0.0045129524
0.0091459331
0.0085103398
0.0046768879
0.0014576364
-0.0012833692
-0.0018516085
-0.0017266566
-0.0027157986
-0.0035047859
-0.0039593135
-0.0040142891
-0.0036458942
-0.0028205597
-0.0015505736
0.00016168356
0.0023379702
0.0040237458
0.0050672014
0.0099563923
0.0087566619
0.005830772
0.0020761713
0.00077581148
0.00070409756
-8.0816382e-05
-0.00062592199
-0.00084191393
-0.00069292113
-0.0002715797
0.00051357019
0.0015138387
0.0028664162
0.0041497916
0.0036917614
0.0088491691
0.0045060769
0.0023118949
0.0018880834
0.0013594623
0.0010384462
0.0010152452
0.0012640374
0.0017119384
0.0025499263
0.0030748205
0.0036496992
0.002118176
0.0019571485
0.001820856
0.0018569058
0.0023680599
0.0022997051
0.0047696027
0.0051585652
0.0046857725
0.0032293104
0.0027671686
0.0024697824
0.00232191
0.0027069927
0.0028017309
0.0063313353
0.0039386299
0.002778498
0.0015790734
0.00098731073
0.00036629673
0.0002209242
0.00037723994
0.00069121911
0.0014137282
0.0020686105
0.0030506394
0.0035078795
0.0034616712
0.0059793788
0.0058704285
0.0025699881
0.00030140341
-0.0012761259
-0.0024644753
-0.0031465975
-0.0033074708
-0.0029972877
-0.0023809297
-0.0015905162
-0.00057963882
0.00034519663
0.0013964399
0.0017212668
0.0031591479
0.0031103207
0.0064403895
0.0042376746
0.0016074205
-0.0016460301
-0.004043971
-0.0057093867
-0.0067227764
-0.0070990723
-0.007008915
-0.0065304556
-0.0057466517
-0.0047682251
-0.0035921697
-0.0024305708
-0.0012531411
-0.00032360929
0.00080974917
0.0019396046
0.0036393134
0.0066630703
0.004782538
0.0016739122
-0.0022068357
-0.0053224227
-0.0075734767
-0.0090477974
-0.0098679539
-0.010154065
-0.010011269
-0.0095072435
-0.0087004579
-0.0076720034
-0.0064517561
-0.0052307946
-0.0040799631
-0.0032439074
-0.0020270902
0.00010784882
0.0015494912
0.0034949209
0.0067754491
0.005170695
0.002357548
-0.0021419346
-0.0056761755
-0.0084792703
-0.010474219
-0.011735687
-0.012419191
-0.012623103
-0.012456967
-0.011992589
-0.011261441
-0.010304916
-0.0091456528
-0.0079415005
-0.0068072328
-0.0059834417
-0.0047648918
-0.0029110547
-0.00051785476
0.0010903001
0.0034071305
0.0067426031
0.0028197349
-0.001374902
-0.0051324019
-0.008226869
-0.010646276
-0.01239582
-0.013570748
-0.014216559
-0.014449276
-0.014362725
-0.014006166
-0.013389033
-0.012537348
-0.011470899
-0.010322037
-0.0092340723
-0.0084580497
-0.0072264623
-0.0054541643
-0.0032424031
-0.00073802575
0.0021695259
0.00086984705
0.0073452916
0.0033415405
0.00025827955
-0.0038042575
-0.0072635545
-0.010134837
-0.012372822
-0.013986212
-0.015070163
-0.015736513
-0.016037087
-0.01605585
-0.015814852
-0.015289936
-0.01450447
-0.013489189
-0.012367613
-0.011322149
-0.010564146
-0.0093010962
-0.007627966
-0.005538789
-0.0030592762
-5.5121259e-05
0.0020878341
0.0047365723
0.0019454027
-0.001829907
-0.0054956694
-0.0087671919
-0.011505134
-0.013644663
-0.015225121
-0.016322284
-0.017032283
-0.017469491
-0.017666726
-0.017586586
-0.017126872
-0.016338829
-0.015291275
-0.014132653
-0.013108441
-0.012308789
-0.01095053
-0.0093337368
-0.0073156408
-0.0048690624
-0.0016624593
0.0010404635
0.0025583046
0.0044367123
0.0036128444
0.0013804959
-0.0022407433
-0.0057383079
-0.0089659177
-0.011658164
-0.013834316
-0.015574183
-0.016937416
-0.017963278
-0.018666415
-0.019215769
-0.019417344
-0.019025649
-0.01815635
-0.016968426
-0.015700814
-0.014649967
-0.013683803
-0.012189385
-0.010616742
-0.0086054599
-0.0061779298
-0.0028186613
0.00029304018
0.0026487584
0.0039264426
0.0026663793
0.00047538132
-0.0030518808
-0.006333627
-0.0093228916
-0.011791125
-0.013814055
-0.01550459
-0.016991514
-0.018376162
-0.019646333
-0.020795003
-0.021668555
-0.021257713
-0.020098374
-0.018601716
-0.017156571
-0.015949831
-0.014688764
-0.013097208
-0.011464975
-0.0094568263
-0.0070445358
-0.0037350128
-0.00052992953
0.0014193754
0.0034720287
0.0016319893
-0.00078712672
-0.0043370505
-0.0075388289
-0.010388429
-0.012695524
-0.014589325
-0.016211924
-0.017712323
-0.019222274
-0.020960023
-0.022837082
-0.024508142
-0.024217483
-0.022409811
-0.020295338
-0.018457458
-0.016927457
-0.015397401
-0.013672836
-0.011956607
-0.0099126169
-0.0074480467
-0.0042786548
-0.00088345208
0.00074662199
0.0015831427
0.0031655377
0.00071004905
-0.0019554887
-0.005569952
-0.008743601
-0.011460918
-0.01362559
-0.015428938
-0.017039106
-0.018614583
-0.020338096
-0.022506173
-0.023960446
-0.027135338
-0.027458115
-0.024888071
-0.021952931
-0.01955616
-0.017636538
-0.01581295
-0.013970762
-0.012143853
-0.01002622
-0.0074921543
-0.0044133755
-0.0013241402
0.000305309
0.0015865894
0.0022878734
0.00055516856
-0.0029817989
-0.0066202531
-0.0097954646
-0.012412375
-0.014444656
-0.016139508
-0.017683548
-0.019222664
-0.020990761
-0.02315773
-0.026396414
-0.029784351
-0.029898575
-0.026084752
-0.022909617
-0.020046089
-0.01787721
-0.015908677
-0.013993304
-0.01205257
-0.009823753
-0.0072006521
-0.0042101919
-0.001196818
0.00037341698
0.0011296793
0.0027556613
0.00023275251
-0.0034474829
-0.0073488533
-0.010537521
-0.0131118
-0.015034425
-0.016614434
-0.018037948
-0.019424779
-0.020935885
-0.02235322
-0.025227582
-0.027101582
-0.029063037
-0.025342767
-0.022270318
-0.019730261
-0.017633551
-0.01568354
-0.013737654
-0.011686395
-0.0093201053
-0.0066253133
-0.0035641177
-0.0012184
0.00042134042
0.0011839136
0.0033716569
0.0007113838
-0.003467229
-0.0076518768
-0.010909831
-0.013515918
-0.015363085
-0.01683899
-0.018117928
-0.019320158
-0.02040516
-0.021457686
-0.022799119
-0.024491255
-0.024463871
-0.022976677
-0.020826938
-0.018861046
-0.0170168
-0.015171049
-0.013219332
-0.011068176
-0.0085782759
-0.005845517
-0.0028132649
-0.00071278939
0.00041846879
0.001219893
0.0042664853
0.0011810324
-0.00289793
-0.0074379782
-0.010818163
-0.013530131
-0.015356639
-0.016759722
-0.017895938
-0.018904048
-0.019611925
-0.020026964
-0.020847462
-0.021731085
-0.021927457
-0.020890451
-0.019510153
-0.017889768
-0.016238108
-0.014475404
-0.012514189
-0.010268085
-0.0076688551
-0.0048979081
-0.0019404181
-8.17918e-05
0.00065327809
0.0052260894
0.0023821112
-0.0017459284
-0.0065118869
-0.010137129
-0.013033115
-0.014915116
-0.016298708
-0.017320903
-0.018218344
-0.018510665
-0.018575653
-0.019124967
-0.019731247
-0.019883245
-0.019395247
-0.018480532
-0.017199083
-0.015629232
-0.013841448
-0.011801278
-0.0094564243
-0.0067796977
-0.0039786261
-0.001159035
0.00051625527
0.00099467986
0.003589631
-0.00012662281
-0.0048538288
-0.0087304855
-0.011897269
-0.013923474
-0.015338197
-0.016361298
-0.017149793
-0.017132204
-0.017033814
-0.017475817
-0.017927303
-0.018100701
-0.017879324
-0.017312937
-0.016408198
-0.015141332
-0.013459382
-0.011399319
-0.0089595942
-0.0061876966
-0.0032414965
-0.00040697193
0.0014355229
0.0014253994
0.0060161771
0.0022060494
-0.0023744568
-0.0064469069
-0.0099619949
-0.012250873
-0.013819152
-0.014906033
-0.015649995
-0.015468946
-0.015365025
-0.01577623
-0.01616439
-0.016345209
-0.016239463
-0.015836464
-0.015096592
-0.01399433
-0.012471911
-0.010466512
-0.0080263272
-0.005204813
-0.0020791307
0.00010573652
0.0017588987
0.0017301191
0.0064543707
0.0056700714
0.0010482603
-0.0031954355
-0.0070568594
-0.0098231717
-0.011650428
-0.012889701
-0.013665196
-0.013453472
-0.013453937
-0.013915533
-0.014332567
-0.014567638
-0.014547292
-0.014237937
-0.013571632
-0.012474856
-0.010933417
-0.0088881223
-0.0063540694
-0.0034278124
-0.00033477468
0.002291514
0.0030741217
0.0066672343
0.0039037805
0.00093740419
-0.0032923957
-0.0065682556
-0.0087617536
-0.010269083
-0.011156465
-0.010996609
-0.011168687
-0.011757734
-0.012294031
-0.012636326
-0.012718027
-0.012492782
-0.011872562
-0.010778431
-0.00909174
-0.0068234194
-0.0040273229
-0.00062677557
0.0014173608
0.0040610927
0.0080410249
0.0042432187
0.0015173647
-0.0025460698
-0.0051288426
-0.0070274484
-0.0080937766
-0.0080329721
-0.0083754795
-0.0091153134
-0.009795567
-0.010237481
-0.010362015
-0.010129299
-0.0094586505
-0.0082762649
-0.0064838158
-0.0040288195
-0.0010427561
0.0012425811
0.0032343907
0.0034485386
0.0080073622
0.0046351517
0.0019765275
-0.00070224712
-0.0032763218
-0.0046771012
-0.0047463856
-0.0052318358
-0.006083119
-0.0068633214
-0.007375942
-0.0075432471
-0.0073212216
-0.006578148
-0.0053111053
-0.0034611577
-0.0009789104
0.00097378328
0.0030364856
0.0029250603
0.0080830437
0.0062358691
0.0027745534
0.00084194108
-0.0008261022
-0.0010928677
-0.0017667032
-0.0026856559
-0.0034854194
-0.0039828085
-0.0040374795
-0.0036314872
-0.0028000817
-0.0016787239
-5.4652258e-05
0.0024482829
0.0033947888
0.0032568755
0.0066267109
0.006903773
0.003937564
0.0016925192
0.0011492048
0.00049502806
-0.00011690469
-0.00060457469
-0.00079948613
-0.00053833664
-0.00030678404
0.00044072825
0.0011456063
0.0022708806
0.0045639062
0.0055492378
0.0038700103
0.0024642991
0.0017203024
0.0011812365
0.00089343482
0.00087060996
0.0010377988
0.0016502934
0.002300315
0.0028335092
0.0021404933
0.0020670642
0.0018904973
0.001718848
0.0018284184
0.0021745035
0.0037364089
0.0043628547
0.0043645445
0.0027791271
0.0024524812
0.0022527073
0.0022001282
0.0025237033
0.002672158
0.0047449238
0.0026836745
0.00182827
0.00082420352
0.00037535656
-0.0001505831
-0.00018142044
6.7909435e-05
0.00042609114
0.0012092552
0.0018732209
0.0030522121
0.0037392158
0.0030547073
0.0044833173
0.0044075809
0.0012564318
-0.00089074434
-0.0023151385
-0.0033716286
-0.0039142259
-0.0039216721
-0.0034604178
-0.0027105408
-0.0018207946
-0.00074535263
0.0001470717
0.0011728694
0.0013036974
0.002574042
0.0025188613
0.0048351287
0.0026451452
0.00029103881
-0.0028444531
-0.0050618479
-0.0065827366
-0.0074792035
-0.0077659606
-0.0075908723
-0.0070241463
-0.0061537421
-0.0051134775
-0.0039071486
-0.0027626036
-0.001606908
-0.00060786727
0.00040714529
0.0012030283
0.0029132742
0.0051167062
0.0032470181
0.00048238179
-0.0032540856
-0.0062678948
-0.0084181558
-0.0098206396
-0.010567783
-0.010790894
-0.010574604
-0.0099958465
-0.0091239147
-0.0080574325
-0.0068349579
-0.0056393767
-0.0045032215
-0.0035541286
-0.0023957512
-0.0003970284
0.00077244092
0.0026977843
0.0049150432
0.0035586779
0.0012019262
-0.0031264272
-0.006500819
-0.0091927012
-0.011126386
-0.012365191
-0.013002216
-0.013157376
-0.012943378
-0.012433223
-0.011665599
-0.010695419
-0.0095536845
-0.0083852676
-0.0072553807
-0.0062949438
-0.0050974227
-0.0034218182
-0.0011276397
0.00019333309
0.0025526598
0.0050929905
0.0017306387
-0.0022389373
-0.0058367761
-0.0088518026
-0.011236006
-0.012986396
-0.014115788
-0.014740108
-0.014923067
-0.014793498
-0.014403681
-0.013765874
-0.01291537
-0.011878949
-0.010776915
-0.0096910224
-0.008754882
-0.0075406771
-0.0059427619
-0.0038128622
-0.0014718124
0.0012986727
-0.00036002011
0.00563727
0.0022637917
-0.00040576943
-0.0043474318
-0.007741486
-0.010573533
-0.012826546
-0.014488574
-0.015619911
-0.016254401
-0.01650336
-0.01647031
-0.016192422
-0.015650667
-0.014874264
-0.013896833
-0.012833544
-0.011783635
-0.010854022
-0.009618907
-0.0080904448
-0.0060783531
-0.0037498987
-0.00084793596
0.0010609903
0.0043434604
0.0016480859
-0.0020920647
-0.0057320282
-0.0089910664
-0.011727848
-0.01390402
-0.01556167
-0.016762353
-0.017562724
-0.017971218
-0.018114707
-0.017986158
-0.017498579
-0.016719184
-0.015715302
-0.014626442
-0.013571842
-0.012593437
-0.011291493
-0.0097849043
-0.0078358052
-0.0054766265
-0.0024240794
0.00020415036
0.001657019
0.0045664725
0.0033439333
0.00098444573
-0.0027718073
-0.0062872369
-0.009483761
-0.01214895
-0.014309786
-0.016035275
-0.017399857
-0.018463322
-0.019226799
-0.019737844
-0.019863379
-0.019429201
-0.018573997
-0.017437906
-0.016237863
-0.015103618
-0.01400203
-0.01259538
-0.011044484
-0.0091002708
-0.0067252793
-0.00350907
-0.00033597324
0.002096766
0.003933264
0.0023033071
9.0677836e-05
-0.0036442222
-0.0070161408
-0.010048299
-0.012532205
-0.014564247
-0.016264351
-0.017751834
-0.019115486
-0.020377302
-0.02154991
-0.022276169
-0.021732156
-0.020581357
-0.019150574
-0.017731468
-0.016407202
-0.015097906
-0.01351076
-0.011881428
-0.0099263565
-0.007547855
-0.0043499285
-0.0010446185
0.00084433908
0.0034350947
0.0012666716
-0.0011495268
-0.0048872134
-0.0081616537
-0.01103444
-0.013342001
-0.015237915
-0.016880482
-0.018422059
-0.019980809
-0.021751043
-0.023682356
-0.025062529
-0.024699604
-0.022973477
-0.020914491
-0.019089199
-0.01742
-0.015812053
-0.014067793
-0.012347948
-0.010361084
-0.0079172356
-0.0048196187
-0.0013270072
0.00022500778
0.0011389466
0.0030730102
0.0003122076
-0.0023528309
-0.0061113722
-0.0093294832
-0.012043827
-0.014186775
-0.015971401
-0.017586999
-0.01919675
-0.020980453
-0.023221646
-0.024846393
-0.02767344
-0.027867848
-0.025480203
-0.0226538
-0.020174105
-0.018116291
-0.016203032
-0.014335314
-0.012515796
-0.010448325
-0.0079303502
-0.0048725305
-0.0017421269
-0.00011727533
0.0012950641
0.0019260061
0.00011345328
-0.0035292162
-0.0072198459
-0.010406914
-0.012983806
-0.014968036
-0.016626762
-0.018172496
-0.019740736
-0.021605789
-0.023815978
-0.027267752
-0.03003159
-0.03013116
-0.026522109
-0.02350333
-0.020592554
-0.018314161
-0.01628138
-0.014348834
-0.012418415
-0.010222699
-0.0076049227
-0.0045944261
-0.0015376035
6.5007213e-05
0.0008623025
0.0023270916
-0.00033633435
-0.0041337497
-0.0080278542
-0.011204812
-0.013704272
-0.015552527
-0.017084854
-0.01851548
-0.019946141
-0.02159498
-0.023092275
-0.026361171
-0.027914126
-0.029507403
-0.025913063
-0.022858101
-0.02025908
-0.018074524
-0.016075631
-0.014112858
-0.012065071
-0.0097090274
-0.0070009996
-0.0038576726
-0.0015268507
0.00038007943
0.0010556267
0.0028599344
6.1051249e-05
-0.0043147501
-0.0084194431
-0.01164687
-0.014146684
-0.015897125
-0.017322566
-0.018619707
-0.019889473
-0.021083306
-0.022317549
-0.023627284
-0.025221497
-0.025162082
-0.023727483
-0.021524791
-0.019463732
-0.017523121
-0.015622086
-0.013647127
-0.011489627
-0.0089881016
-0.0062178677
-0.0030709733
-0.00098251662
0.00029616672
0.0011191649
0.0037414742
0.00038101364
-0.0038967365
-0.0083092931
-0.0116226
-0.014207867
-0.015921117
-0.017275466
-0.018438752
-0.019497582
-0.020239507
-0.020858588
-0.021661599
-0.022452624
-0.022693309
-0.021687185
-0.020247325
-0.018562908
-0.01683673
-0.015014747
-0.013019999
-0.010757331
-0.0081302369
-0.0052971028
-0.002194308
-0.00032826471
0.00061462798
0.0045650755
0.0013679745
-0.0029027419
-0.0075312545
-0.01101954
-0.013763444
-0.015527177
-0.016834042
-0.017905016
-0.018734197
-0.019122231
-0.019397536
-0.019860821
-0.02036343
-0.020510529
-0.020032002
-0.019078959
-0.017742557
-0.016177926
-0.014391398
-0.012348298
-0.0099955612
-0.0072932967
-0.0044310564
-0.0014883581
0.00024616981
0.00094102974
0.0022363862
-0.0014911478
-0.0060504347
-0.0097266218
-0.012679179
-0.014566466
-0.015919158
-0.016909175
-0.017595552
-0.017746171
-0.017819413
-0.018146684
-0.018491836
-0.018639095
-0.018424874
-0.017837274
-0.01684677
-0.015500233
-0.013813266
-0.011775106
-0.0093604941
-0.0065890531
-0.0036146739
-0.00072984656
0.0012229671
0.0013167005
0.0048087525
0.0006847837
-0.0037914535
-0.0075810195
-0.010824762
-0.012946708
-0.01441097
-0.015426513
-0.016051552
-0.016086014
-0.016112887
-0.016399443
-0.016689776
-0.016831781
-0.016730497
-0.0163531
-0.015609747
-0.014433392
-0.012857562
-0.010845413
-0.008413222
-0.0056063323
-0.0024815676
-0.00050058369
0.0014645883
0.0013096676
0.0052994395
0.0039405761
-0.00053365756
-0.0044849527
-0.0080677974
-0.01057994
-0.012257605
-0.013408263
-0.014053899
-0.014076821
-0.014175984
-0.01451975
-0.014850473
-0.015046635
-0.015022617
-0.014733304
-0.014088536
-0.013024064
-0.011461185
-0.0094164128
-0.0069004636
-0.0040209062
-0.00097974634
0.0013694599
0.0022625035
0.0049001672
0.0020018057
-0.00051105968
-0.004506605
-0.0074614819
-0.009433716
-0.010802685
-0.011550685
-0.011629448
-0.011876629
-0.012360641
-0.012826194
-0.01314282
-0.013227493
-0.013019451
-0.012426683
-0.011333768
-0.009696636
-0.0074677271
-0.0047458858
-0.0013869341
0.00036223256
0.0033945498
0.0060045882
0.0024273875
0.00010333223
-0.0036553619
-0.0059306339
-0.0075979006
-0.0084917232
-0.0086580319
-0.0090603918
-0.0097125105
-0.010345439
-0.010786281
-0.010934639
-0.010728628
-0.010103151
-0.0089602372
-0.0072122933
-0.0048040623
-0.0018777036
0.00018604882
0.0023061424
0.0023536185
0.0060674253
0.0027058942
0.00058650529
-0.0017146008
-0.0039228256
-0.0050798043
-0.0053400628
-0.005866653
-0.0066369037
-0.0073902982
-0.007922115
-0.0081239156
-0.007951026
-0.0072777007
-0.0061181036
-0.0043751544
-0.0019397101
-0.00019439949
0.0020241971
0.0018860572
0.0061182868
0.0042180039
0.0012149607
3.2177641e-05
-0.0012146927
-0.0015530536
-0.0022685283
-0.0031325332
-0.0039451821
-0.0045125666
-0.0046597541
-0.0043434995
-0.0036132191
-0.0026152472
-0.0010213655
0.001341534
0.0023783562
0.0019406078
0.0041971314
0.0046562412
0.0027829526
0.0011517134
0.0007351578
2.1750739e-05
-0.00050928481
-0.00099302073
-0.0012289118
-0.0010077129
-0.00089079999
-0.00026879008
0.00020913778
0.0014093117
0.0038356451
0.0034837289
0.0031987393
0.0023285595
0.0015082116
0.00098740562
0.00070316579
0.00064810344
0.00069276592
0.0013810435
0.0017827191
0.0023219021
0.0012151423
0.0019183012
0.0017479382
0.0015436782
0.0016285711
0.0019253671
0.0026997141
0.0034050855
0.0037097563
0.0022011642
0.0020312445
0.0019611167
0.0020156993
0.0023460242
0.0025594083
0.003231417
0.0011668364
0.00058424449
-0.00022519598
-0.00047831847
-0.00085065777
-0.00072786345
-0.00033677998
0.00011233389
0.00099237992
0.0016546674
0.0029565112
0.0034942646
0.0024982269
0.0028884151
0.0027254013
-0.00026045751
-0.0022761925
-0.003619926
-0.0045242249
-0.0049239749
-0.0047739614
-0.0041475572
-0.0032332411
-0.0022083576
-0.0010179719
-0.00013636145
0.0008847064
0.00067536221
0.0017942075
0.001851849
0.0031255398
0.00078217372
-0.0013176275
-0.0042848734
-0.0063514767
-0.0077121041
-0.0084967745
-0.0086864619
-0.0084171974
-0.0077499597
-0.0067798538
-0.0056606208
-0.0043855116
-0.0032433723
-0.0020678752
-0.0011187074
-0.00022613693
0.00029920173
0.0020289012
0.0033809575
0.0014229366
-0.0010010919
-0.0045269143
-0.0073757163
-0.0094004736
-0.010729058
-0.011444183
-0.011612388
-0.01133524
-0.01069304
-0.0097594916
-0.0086500817
-0.0073959107
-0.0062080102
-0.0050634847
-0.0041216965
-0.0030425054
-0.0011247183
-0.00020189833
0.0017014361
0.0031975028
0.001724322
-0.00024040138
-0.0043684784
-0.0075393651
-0.010084034
-0.011916194
-0.013128646
-0.013754833
-0.01387049
-0.013620181
-0.013078807
-0.012284686
-0.011302306
-0.01015689
-0.0090034446
-0.007859374
-0.0068678379
-0.0057001987
-0.0041460103
-0.0019385253
-0.00087106292
0.0015032313
0.0033130364
0.00042315254
-0.0033543433
-0.0067655489
-0.0096473256
-0.011934814
-0.013627255
-0.014755286
-0.015384198
-0.015567547
-0.01541779
-0.015014727
-0.01437023
-0.013524059
-0.012499615
-0.011417133
-0.010312467
-0.0093153091
-0.0081023374
-0.0066067867
-0.0045709301
-0.0024051249
0.00030486818
-0.0012353016
0.0042527264
0.00096663071
-0.0013343854
-0.0051730419
-0.0084444558
-0.011192918
-0.013398599
-0.01505209
-0.01621158
-0.016921495
-0.017176193
-0.017113694
-0.016814361
-0.016268793
-0.015502249
-0.014540807
-0.01349479
-0.012413853
-0.011403587
-0.01014678
-0.0086933281
-0.0067792825
-0.0046312646
-0.0017745294
-3.7063233e-05
0.0036284174
0.00096849737
-0.0027863053
-0.0063917572
-0.009624239
-0.012324276
-0.014488711
-0.016168473
-0.017411846
-0.018261928
-0.01872152
-0.018851194
-0.018672852
-0.018163989
-0.017390199
-0.016399853
-0.015321209
-0.014216269
-0.013141908
-0.011796987
-0.010338618
-0.0084695546
-0.0062922435
-0.0033022127
-0.00080682432
0.00077138685
0.0043276154
0.0029242009
0.00047780723
-0.003474773
-0.0070418438
-0.010259001
-0.012917926
-0.015080298
-0.016831115
-0.018242699
-0.019346306
-0.020134906
-0.02061551
-0.02065113
-0.020163405
-0.019309552
-0.018181804
-0.016982939
-0.015779238
-0.01456422
-0.013085827
-0.011572062
-0.0097086706
-0.0074618856
-0.0043735526
-0.0011650912
0.0013265096
0.003822955
0.001884142
-0.00039598477
-0.0043857263
-0.0078399608
-0.01092248
-0.01342908
-0.015485532
-0.017224169
-0.018766463
-0.020184897
-0.021473867
-0.022628053
-0.023212295
-0.022561676
-0.021406197
-0.0199823
-0.018543375
-0.017127252
-0.015686201
-0.0140424
-0.012420115
-0.0105433
-0.0082476987
-0.0051367482
-0.001772294
0.00010187152
0.0033410044
0.00084872538
-0.0016555244
-0.0056290391
-0.0089800335
-0.01189375
-0.014220632
-0.016145826
-0.017835364
-0.019443019
-0.021080409
-0.022903525
-0.024841508
-0.025947723
-0.025511086
-0.023853712
-0.021816499
-0.019958655
-0.018187144
-0.016447246
-0.014617677
-0.01288556
-0.010962823
-0.0085743055
-0.0055355438
-0.0019399547
-0.0003891388
0.00070723065
0.002891597
-0.00018468381
-0.0029663247
-0.0068900336
-0.010148911
-0.012868942
-0.015007687
-0.016806804
-0.018462087
-0.020134229
-0.021996706
-0.024302131
-0.025840879
-0.028273465
-0.028393906
-0.026321234
-0.023624038
-0.021068412
-0.01887617
-0.01683984
-0.014874059
-0.013046641
-0.011029777
-0.0085492166
-0.0055144853
-0.0022964236
-0.00061785967
0.00094311282
0.0014462126
-0.00049492709
-0.0043230281
-0.0080799739
-0.011263335
-0.013798655
-0.015746866
-0.017401507
-0.01898547
-0.020621506
-0.022608841
-0.024865434
-0.028137354
-0.030280306
-0.030323087
-0.027261604
-0.024379261
-0.021457038
-0.019043835
-0.016896118
-0.014894924
-0.012960645
-0.01079537
-0.0081913141
-0.005158346
-0.001993313
-0.00031960672
0.0005621975
0.0017675009
-0.0011078063
-0.0050858293
-0.008984548
-0.01210682
-0.014523087
-0.01630441
-0.017821547
-0.019299801
-0.020838969
-0.02264597
-0.024289424
-0.027385898
-0.028693955
-0.029938823
-0.026782994
-0.023764882
-0.021110246
-0.018805736
-0.016714412
-0.014695646