/*--------------------------------*- C++ -*----------------------------------*\
| =========                 |                                                 |
| \\      /  F ield         | OpenFOAM: The Open Source CFD Toolbox           |
|  \\    /   O peration     | Version:  2406                                  |
|   \\  /    A nd           | Website:  www.openfoam.com                      |
|    \\/     M anipulation  |                                                 |
\*---------------------------------------------------------------------------*/
FoamFile
{
    version     2.0;
    format      ascii;
    arch        "LSB;label=32;scalar=64";
    class       volScalarField;
    location    "800";
    object      epsilon;
}
// * * * * * * * * * * * * * * * * * * * * * * * * * * * * * * * * * * * * * //

dimensions      [0 2 -3 0 0 0 0];

internalField   nonuniform List<scalar> 
150387
(
0.0025333094
0.0011249744
0.0010680394
0.0011352158
0.0012763479
0.0017523582
0.0025476238
0.0039477582
0.0053072568
0.00088596811
0.00074606513
0.00072230376
0.00072925336
0.00076008613
0.00081854948
0.00091564912
0.0010766287
0.0012597082
0.0013349751
0.0013673937
0.0028123121
0.00084332042
0.00076552368
0.00078548663
0.00085059337
0.00091320644
0.00095540727
0.00097851416
0.00098220682
0.00098575495
0.0010413104
0.0011575403
0.0012897752
0.001350256
0.0013127966
0.0012757858
0.0024378447
0.0060757895
0.0009016366
0.00086862568
0.00099768813
0.0011517828
0.0012926576
0.0014083794
0.0014724902
0.0014761636
0.0014268538
0.0013351553
0.0012510703
0.0012437331
0.0013085999
0.0014054411
0.0014261598
0.001321101
0.0011560419
0.0018667671
0.0064537459
0.00094765866
0.00099867809
0.0012069227
0.0014339158
0.0016398757
0.0018370314
0.0020124824
0.0021390969
0.0021687281
0.0020993118
0.0019643726
0.0017720921
0.0015589829
0.0014594468
0.0014831787
0.0015453038
0.0015098403
0.0013352276
0.0011682538
0.0011409346
0.0010311678
0.0010628214
0.0013299191
0.00161867
0.0018731274
0.0021176668
0.0023551272
0.002566048
0.0027433735
0.00285581
0.0028243536
0.0026458049
0.0024307426
0.0021605425
0.0018337732
0.0016629632
0.0016643396
0.0016834865
0.0015689381
0.0013162027
0.0010279603
0.0015206913
0.0011764322
0.0011171755
0.0013706547
0.0016755206
0.0019373018
0.0021650224
0.0023969953
0.00263801
0.0028722721
0.0030798364
0.0032553211
0.0033542244
0.0032824012
0.0030201879
0.0027567454
0.002423897
0.0020319856
0.0018423715
0.001832305
0.0017802828
0.0015658983
0.0012196923
0.0010363506
0.0020530758
0.0051952991
0.0011651684
0.0013319853
0.0016099616
0.001855928
0.0020492712
0.0022396055
0.0024791381
0.0027555267
0.0030253544
0.0032366679
0.0033816657
0.0035140369
0.0036000973
0.0035301339
0.0032457724
0.0029400566
0.002535808
0.0021475866
0.0019931551
0.0019556331
0.0017942322
0.0014700939
0.0010721626
0.00090798523
0.0012833727
0.0012694502
0.0014731157
0.0016750281
0.0018396749
0.0019827189
0.0022131099
0.0025738348
0.0029810742
0.0032792949
0.0033731645
0.0032961829
0.0031907269
0.0032409589
0.0033627808
0.0034000082
0.0032382821
0.0029479352
0.0025259637
0.0022193841
0.0021170952
0.001983732
0.0016918221
0.0012501977
0.0008627138
0.0013364604
0.0012678272
0.0013685516
0.001502257
0.0016118218
0.0017245228
0.0019518171
0.0023907308
0.0029533185
0.0033624269
0.0034138946
0.0030025488
0.0023122236
0.0017955577
0.0016774571
0.0020069258
0.0026381181
0.0030964818
0.003105038
0.0028219172
0.0024775112
0.0023017221
0.0021439368
0.0018706955
0.0014329744
0.00094484075
0.0009518217
0.0023797198
0.0013232417
0.0013722092
0.0014264354
0.0015081251
0.0017076028
0.0021765607
0.0028309268
0.0033399131
0.003459333
0.0028884181
0.0015865455
0.00069133647
0.00035316526
0.00027287212
0.0003748602
0.00094476829
0.0020808116
0.0028756097
0.0029290491
0.0026779558
0.0024850974
0.0022927129
0.0020104995
0.0015788974
0.0010583967
0.00088583177
0.0018525095
0.001319637
0.0012873261
0.0013126914
0.0014680705
0.001895226
0.0025739
0.0031536774
0.0034302238
0.0032491446
0.0017178449
0.00043232572
0.00012803681
8.2554808e-05
7.6616508e-05
9.0780518e-05
0.00024181803
0.00097230926
0.0022424636
0.0028380401
0.0027764065
0.0026268027
0.0024155584
0.0021164904
0.001675684
0.0011408868
0.00082975984
0.0032146295
0.0014429867
0.0012284739
0.0011670892
0.0012440638
0.0015558962
0.0021854364
0.0027987342
0.0032418546
0.0034559567
0.0027373422
0.00085945527
0.00014720171
8.0354625e-05
8.8332551e-05
6.5022194e-05
5.8873442e-05
0.00010160466
0.00044988282
0.0016303753
0.0026328685
0.002792952
0.0027113945
0.0024870287
0.0021788601
0.0017114842
0.0011875317
0.0008281086
0.001563392
0.0013992444
0.0010892682
0.0010648366
0.0012360234
0.0017116953
0.002352137
0.0028806935
0.0032601639
0.0033930274
0.0022984109
0.00062360813
0.00011973482
0.00010604137
0.00043454738
5.0940634e-05
5.098731e-05
7.446175e-05
0.00028289368
0.0012722578
0.0024690372
0.0027687983
0.0027496551
0.0025255553
0.0021904949
0.0016796687
0.0011990352
0.00083332369
0.0015619637
0.0013472328
0.00094847524
0.00099616136
0.0012598302
0.0017959883
0.0024008095
0.002867215
0.0031808905
0.0032514349
0.0022512929
0.00072690335
0.00014675017
0.00010611612
0.00014032396
0.00010250781
6.0607314e-05
8.7113059e-05
0.00028705204
0.0012141826
0.0024852844
0.0027952497
0.0027760389
0.0025107014
0.0021180913
0.0016303776
0.0011765716
0.00083497845
0.0017695494
0.0013348476
0.0008479343
0.00094642969
0.0012645937
0.0017937004
0.0023519127
0.0027183778
0.0030225857
0.0031986293
0.0025330692
0.0011180536
0.00027516519
0.00010158313
7.5862742e-05
7.128365e-05
8.3889778e-05
0.0001528372
0.00051087035
0.0016232716
0.0026735491
0.0028786204
0.0027527448
0.0024266245
0.0020310567
0.0015578958
0.0011022348
0.00084749072
0.0048276632
0.0019344604
0.00079663076
0.00090091754
0.0012233454
0.0017174614
0.0021926361
0.0024816447
0.0028019553
0.0031774257
0.0029138188
0.0018738405
0.0007114865
0.00023772863
0.00013553723
0.00013502124
0.00020094198
0.00042249479
0.0011078492
0.0022793687
0.0028555169
0.002879582
0.0026553252
0.0023298399
0.0018929365
0.0014112293
0.0010042629
0.00094067563
0.0037003551
0.0035406757
0.00077691153
0.00084392115
0.0011478147
0.0015702407
0.0019663658
0.0022160392
0.0025307322
0.0030402019
0.0031291496
0.00273593
0.0018250859
0.00090335858
0.00051102167
0.00052130186
0.00074484545
0.0012482169
0.0020847036
0.0027530173
0.0028788268
0.0027891563
0.0025313748
0.0021291837
0.0016478117
0.0012101376
0.0009325168
0.00096763649
0.00082460906
0.00078147744
0.0010481834
0.0014025817
0.0017331917
0.0019460485
0.0022060399
0.0027217697
0.0031027113
0.0030350734
0.0028288761
0.0023586647
0.001856542
0.0017348721
0.0019547295
0.0023540521
0.0027323633
0.002880895
0.0028597153
0.0026307138
0.0022426133
0.0017783551
0.0013640315
0.0010577905
0.00092976286
0.001741845
0.0010350972
0.00073397073
0.00093080822
0.0012448896
0.0015212984
0.001694211
0.0018786377
0.0023080047
0.0028153828
0.0029853149
0.0029575171
0.002896958
0.0027822984
0.0027008505
0.0027365818
0.0028302335
0.0028861954
0.0028158564
0.002568571
0.0022000817
0.0017921807
0.001443755
0.0011726715
0.0010019837
0.001107753
0.0021801325
0.00075235225
0.00082331106
0.0010845403
0.0013375742
0.0014975108
0.0015956676
0.0018807972
0.0023642394
0.0026883999
0.0027670735
0.0027775097
0.0027382885
0.0027088213
0.002717575
0.002664783
0.0025314563
0.0023103497
0.0020249399
0.0017250868
0.0014656005
0.0012481899
0.0010753693
0.0010042197
0.0014021559
0.0011521183
0.0007804749
0.00093619141
0.0011587336
0.0013285662
0.0014037443
0.0015222578
0.0018653511
0.0022476172
0.0024317067
0.0024769282
0.0024805969
0.0024239985
0.002333258
0.0022193583
0.0020525374
0.0018516294
0.0016520393
0.0014598978
0.0012773468
0.001109856
0.00098805747
0.0010443088
0.0040065959
0.001043881
0.0008483927
0.000994366
0.0011683089
0.0012528286
0.0012866078
0.0014396551
0.0017371051
0.0019829616
0.0020713869
0.002103631
0.0020943828
0.0019934503
0.0018774927
0.0017406685
0.0015862233
0.0014219428
0.0012537254
0.0010893543
0.00096447629
0.0011321187
0.0024968354
0.00099579853
0.00088115093
0.0010230031
0.0011222595
0.0011358252
0.0011553696
0.0013019466
0.0015064644
0.0016282571
0.0016695096
0.001684053
0.0016600291
0.0015784916
0.0014627267
0.0013217317
0.0011651122
0.0010049963
0.000875498
0.00088255495
0.0013029347
0.0014443433
0.00098365491
0.0010214982
0.0010384127
0.0010095445
0.0010123116
0.0011092517
0.0012227586
0.0012725152
0.0012762587
0.0012607789
0.0012003122
0.0011063066
0.00098903516
0.00087565817
0.00082860955
0.0010078595
0.0020162818
0.0027364267
0.0011906391
0.0010097902
0.00097245692
0.00090145209
0.0008701108
0.00089664735
0.00092904381
0.00092984886
0.00089926173
0.00084951532
0.00078798623
0.00074206529
0.00074731262
0.00099053263
0.0030901453
0.0036437406
0.0013590766
0.0010071702
0.00088302107
0.0007930962
0.00075606886
0.00074300615
0.00073743985
0.00077506574
0.00082027388
0.00097998327
0.00179591
0.00316992
0.0021007304
0.0017218129
0.0014635292
0.001574017
0.0032211814
0.0031275105
0.0015579722
0.0011298685
0.0011231047
0.0012269085
0.0013920827
0.0017586487
0.0018657466
0.0031342491
0.00095932737
0.00066735988
0.00065111287
0.00065347352
0.00066204208
0.00068497752
0.00072802453
0.00079890242
0.00088301711
0.0010034168
0.0012170437
0.0012835188
0.0029803854
0.004605992
0.0018309032
0.00068668409
0.00067580924
0.0006888762
0.00070204002
0.00070456028
0.00069340273
0.00067512748
0.00066208796
0.00066675061
0.00069779283
0.00075769112
0.00082806836
0.00092412505
0.00099365196
0.0015382696
0.001414983
0.0015902108
0.00087601823
0.00082097483
0.00084528867
0.000883912
0.00091554613
0.00093260024
0.00092994026
0.00089827549
0.00084083329
0.00077084867
0.00072218718
0.00072166261
0.00074873276
0.00081421465
0.00089264234
0.00094093835
0.0010409745
0.0015964773
0.0017865775
0.00098428374
0.00092178487
0.00097114376
0.0010380816
0.0010995735
0.0011540693
0.0011986811
0.0012271773
0.0012260686
0.0011817999
0.0010918568
0.00096187595
0.00084092364
0.00077733619
0.00078533064
0.00083967717
0.000900435
0.00090493234
0.00095945085
0.0013463116
0.0027335391
0.0010874757
0.00099205195
0.0010419648
0.0011068123
0.0011629778
0.0012205356
0.0012824432
0.0013422161
0.0013897223
0.0014201908
0.0014222373
0.001378688
0.0012792981
0.0011317819
0.00096139692
0.00084909759
0.0008433777
0.00088435649
0.00090732138
0.00087734648
0.00089466762
0.0013285587
0.0014497292
0.0010782288
0.0010681015
0.0011038637
0.0011259332
0.0011645411
0.0012260946
0.0012994834
0.0013626478
0.0013992174
0.0014128111
0.0014220749
0.0014307327
0.0014055854
0.0013428071
0.0012103365
0.0010357627
0.00091191099
0.00090337273
0.00092507394
0.0008945795
0.00082059969
0.00073485743
0.0015818661
0.0016950564
0.0010899474
0.0010733647
0.0010762907
0.0010520564
0.0010544215
0.0011181529
0.0012251861
0.0013276449
0.0013698189
0.0013406951
0.0012753716
0.0012236522
0.0012159299
0.0012522884
0.0012989952
0.0012962123
0.0012075057
0.0010538157
0.00096206939
0.00095896229
0.00093795989
0.00084434816
0.00070475462
0.00077350006
0.0012746981
0.0010965481
0.0010553694
0.00098237302
0.00094253888
0.0010059984
0.0011582109
0.0013201785
0.0013585185
0.0012349143
0.0010222777
0.00082632055
0.0007085337
0.00070542005
0.00080801547
0.00097504533
0.0011411748
0.001220531
0.0011609569
0.0010515193
0.0010076707
0.00098513738
0.00089486697
0.00072829433
0.00062027132
0.0013088074
0.0053923718
0.0012793187
0.0010692659
0.00095096435
0.00086071852
0.00089849991
0.0010745882
0.0012982226
0.0013620131
0.001164896
0.00080976839
0.00047187357
0.00025790408
0.00016152542
0.00016726725
0.00027661157
0.00050175165
0.00079309106
0.0010608026
0.0011620931
0.0011132566
0.0010613006
0.0010325146
0.00094540043
0.00077007436
0.00059893424
0.00069396617
0.0022651244
0.001165065
0.00098032804
0.00083041152
0.00081315382
0.00095106217
0.0012193083
0.0013626587
0.0012069678
0.00079126208
0.00036349399
0.00010785368
3.3804039e-05
2.7760164e-05
2.7455666e-05
4.7745147e-05
0.00016354864
0.0004400656
0.00080139017
0.001073385
0.001124301
0.0010957914
0.0010735524
0.00098783465
0.00080870588
0.00059167161
0.00058514685
0.0037814842
0.0010919888
0.00086526483
0.0007504791
0.00081342472
0.0010619983
0.0012993101
0.0012955961
0.00099100009
0.00048248963
0.00012391088
1.8688699e-05
2.1029433e-05
2.6022548e-05
2.4967531e-05
2.4015493e-05
3.8257398e-05
0.00020397003
0.00056064538
0.00093466229
0.0011014813
0.0011106897
0.001103332
0.0010186891
0.00083358923
0.00059497976
0.00052504627
0.0031265239
0.001762091
0.000999846
0.00077239784
0.00072004796
0.00086603535
0.0011364987
0.0012914287
0.0012158441
0.00084782503
0.00029772619
4.9078176e-05
1.8496472e-05
2.3371426e-05
6.0874861e-05
4.0571731e-05
2.4634534e-05
2.5493782e-05
9.9223767e-05
0.00040042405
0.00081201099
0.0010625391
0.0011136175
0.0011210895
0.0010337004
0.00083933034
0.000590208
0.00048282391
0.0014639518
0.0014426007
0.00090543739
0.00071071807
0.00071447801
0.00091343196
0.0011454884
0.0012567195
0.0011810271
0.00078498638
0.00023399588
3.7567114e-05
1.8575454e-05
3.330044e-05
0.0003163341
6.273457e-05
2.2233307e-05
2.4688527e-05
7.1898394e-05
0.00033055221
0.00074547869
0.0010318829
0.0011153531
0.0011303424
0.0010294936
0.0008194314
0.00056586443
0.00047562508
0.0014062725
0.0014676482
0.00083416193
0.00068026209
0.00071806785
0.00093142675
0.0011149788
0.0012216706
0.001185317
0.00081294506
0.00028354478
4.809642e-05
1.8882229e-05
2.3564111e-05
7.4066477e-05
2.727e-05
1.9730877e-05
2.4915412e-05
9.2855881e-05
0.00034867605
0.00074405223
0.0010261236
0.0011247578
0.001131013
0.0010015752
0.00077145295
0.00052989898
0.00045114573
0.0015175951
0.001444204
0.00077793238
0.00066589546
0.00072425001
0.0009126241
0.0010599851
0.0011819865
0.0012109548
0.00092438108
0.0004192278
0.00010993497
2.2113304e-05
1.7710282e-05
1.7637145e-05
1.8163396e-05
1.9866523e-05
4.5453134e-05
0.0001659903
0.00044119488
0.00080096855
0.0010542139
0.0011398044
0.001113857
0.00094355279
0.0006959347
0.00048596113
0.00042479718
0.002297362
0.0018043867
0.00075214668
0.00066077352
0.00072128479
0.00086918079
0.00098916989
0.0011234244
0.0012252073
0.0010724147
0.00064045461
0.00027553697
9.5592645e-05
3.6572606e-05
2.8384347e-05
3.0835229e-05
5.2303776e-05
0.00013099113
0.00030926296
0.00059614808
0.00090903658
0.0011095717
0.0011501257
0.0010641608
0.00084963113
0.00060342694
0.00046643475
0.00054138806
0.0022240991
0.00074196051
0.00065572015
0.00070849114
0.00081890404
0.00090871095
0.0010343879
0.0011903313
0.0011925709
0.00090735456
0.00055064077
0.00030705578
0.00016762475
0.00011477268
0.00012466015
0.00018752587
0.00032075488
0.00053806365
0.00081406241
0.0010589225
0.0011679475
0.0011270116
0.00095530707
0.00071293375
0.00053085812
0.00057882351
0.00078267754
0.00076070708
0.00065103276
0.00069393022
0.00077185397
0.00082591273
0.00092002005
0.0010888209
0.0012138051
0.0011248314
0.00087898796
0.00065765024
0.00050257243
0.00041596619
0.0004171893
0.0005027627
0.00065697629
0.00086277899
0.0010638419
0.0011753885
0.0011554096
0.0010135374
0.00079825636
0.00059756262
0.00051756783
0.0007115819
0.0012708494
0.00073191719
0.00065177862
0.00068364181
0.00073693942
0.00075867246
0.00080501044
0.00093849074
0.0011120511
0.0011835892
0.0011029366
0.00097957764
0.0008933237
0.00085111089
0.00085729543
0.00091929379
0.0010228123
0.0011290531
0.0011842866
0.001147027
0.0010187902
0.00082765165
0.00063921426
0.00053676026
0.00055816393
0.00095179786
0.004598977
0.002125257
0.00067710257
0.00069437783
0.00071717411
0.00071577538
0.00071362907
0.0007837795
0.00093303512
0.0010751246
0.0011223642
0.0010982195
0.0010738765
0.0010732144
0.001090497
0.0011164904
0.0011401091
0.0011360334
0.001079457
0.0009633949
0.00080701937
0.00064962026
0.0005595468
0.0005576084
0.001151445
0.0021029785
0.00081292539
0.00077050689
0.00072036397
0.00069922877
0.00066237544
0.00066569579
0.00074823611
0.00088058361
0.00098661292
0.0010272162
0.0010338084
0.0010366434
0.001041278
0.0010368041
0.0010107379
0.00095524062
0.00086575011
0.0007519285
0.00063997889
0.00057241734
0.00056034078
0.00071503207
0.00082111655
0.0011037512
0.00082446915
0.00072424999
0.00064948166
0.00061350085
0.00061314889
0.00068524905
0.00078850989
0.00086307471
0.00089618582
0.00090230511
0.00089265896
0.00086910929
0.00082730273
0.0007666377
0.00069325802
0.00062218462
0.0005797197
0.00057164302
0.00068563094
0.00080533042
0.0021062193
0.0012255879
0.00086982227
0.000728552
0.00061105145
0.00056188933
0.0005572368
0.000603341
0.00067264318
0.00072190852
0.00074265452
0.00074013269
0.00072008638
0.00068701868
0.00064573816
0.00060590652
0.00058179423
0.00058486179
0.00067828471
0.00077114757
0.0017781629
0.0015760348
0.0012333351
0.00071530411
0.00059896739
0.00052866005
0.00050558823
0.00051797312
0.00055479328
0.00058542378
0.00059947214
0.00059532499
0.00057918128
0.000560633
0.00054970233
0.00055616322
0.00060497586
0.00080066338
0.0017238319
0.002082444
0.0010610298
0.00090407147
0.00076901146
0.00055488753
0.00046794987
0.00045582143
0.00045720778
0.00046465142
0.00047234948
0.00048611432
0.00050396193
0.0005391927
0.00058895764
0.00091390593
0.0020193851
0.00254048
0.0010053633
0.00072753787
0.0004818429
0.00044498803
0.00044353939
0.00046240855
0.00050148212
0.00057175101
0.00087555305
0.002428884
0.0058573592
0.0022304391
0.0017270221
0.0014758954
0.0017763308
0.0062363797
0.0031900402
0.0021285587
0.00189603
0.0018560607
0.001894268
0.0020882305
0.002425686
0.0036207492
0.0015264413
0.0012914761
0.0012303445
0.0012203274
0.0012207746
0.0012540101
0.0013084423
0.0013734646
0.0014282058
0.0014712226
0.0015991721
0.0015724592
0.0032005761
0.004759426
0.0022829405
0.0010604068
0.0010103427
0.0010163341
0.0010194005
0.0010114497
0.00099580394
0.0009829627
0.00099092463
0.0010359859
0.0011163233
0.0012055503
0.0012699283
0.0013058026
0.0013015001
0.0017987545
0.0018813266
0.0018279604
0.0010869724
0.0010459757
0.0010579996
0.0010725633
0.0010768002
0.0010670555
0.0010418702
0.00099992668
0.00094961947
0.00090835571
0.00090390502
0.00095779055
0.0010499343
0.0011579468
0.0011895417
0.0012557079
0.0013550857
0.0019987417
0.0021685909
0.0011525174
0.0011081489
0.0011682084
0.0012276779
0.0012640197
0.0012814859
0.0012861082
0.0012788796
0.0012513813
0.0011932737
0.0011048711
0.0010027753
0.00092830549
0.00092324595
0.0010043949
0.0011084805
0.001157279
0.0011375977
0.001205037
0.0017588062
0.0033831686
0.0012928978
0.0012145196
0.0012843655
0.0013423317
0.0013607193
0.0013589663
0.001357537
0.0013613408
0.001364104
0.0013611455
0.001345259
0.0013025833
0.0012188881
0.0011001277
0.00098741681
0.00094940374
0.0010161961
0.0011098475
0.0011289364
0.0010687632
0.0011026862
0.0016093316
0.0016684324
0.0013423544
0.0013525357
0.0013787284
0.0013504013
0.0013029801
0.0012764483
0.001277134
0.0012856436
0.0012833569
0.0012744252
0.0012675915
0.0012714861
0.0012718598
0.0012296977
0.0011325044
0.0010222882
0.0009890622
0.0010580557
0.0011286444
0.0010911416
0.00099568039
0.00084188502
0.0020989485
0.0018322195
0.0013727414
0.0013693966
0.0013786443
0.0012998298
0.0011955666
0.0011474306
0.0011564552
0.0011725059
0.0011456894
0.0010805912
0.0010123897
0.00097894705
0.00099849579
0.0010611725
0.0011318631
0.0011601324
0.0011072274
0.0010310286
0.0010362257
0.0011106343
0.0011242635
0.0010182066
0.00081946608
0.00095661323
0.0015455303
0.0014000373
0.0013883467
0.0012721065
0.0011139521
0.0010427359
0.0010721216
0.0011177509
0.0010724123
0.00092495146
0.00074153687
0.00059320036
0.0005142001
0.00053059317
0.00063812497
0.00080589054
0.00097712928
0.001075217
0.0010667961
0.0010505249
0.0010957725
0.0011389746
0.0010603883
0.00084962369
0.0007016598
0.001494371
0.006146091
0.0016450298
0.0014432723
0.0013081203
0.0010906956
0.00096748534
0.00099906475
0.001087144
0.0010625256
0.00085806161
0.00057453783
0.00032978251
0.00018251462
0.00011924824
0.00013194773
0.00022297814
0.00041092478
0.00066356585
0.00090118874
0.0010267093
0.0010548922
0.0010934
0.0011415786
0.0010906086
0.00088968399
0.00066712446
0.00081822419
0.0027772143
0.0015540909
0.0014316732
0.0011668702
0.00093905655
0.00093205461
0.0010347214
0.0010792619
0.00091378675
0.00057043828
0.00025783505
8.1065401e-05
3.0101278e-05
2.6173102e-05
2.6274213e-05
4.3286838e-05
0.00014106993
0.00037287793
0.00067241446
0.00091365261
0.0010282643
0.0010890046
0.001141069
0.0011052457
0.00091855582
0.00064993194
0.00065869087
0.004264669
0.0015620448
0.0013445209
0.0010053753
0.00086824295
0.00094893992
0.0010625824
0.0010174615
0.00074058025
0.00034063971
9.4177871e-05
1.986117e-05
2.1445229e-05
2.7061745e-05
2.5985217e-05
2.4839493e-05
3.9088752e-05
0.00018320053
0.00047487041
0.00078203041
0.00097502432
0.0010775311
0.001137162
0.001106329
0.0009288654
0.00064908842
0.00056941283
0.0030512171
0.0021133967
0.0015373257
0.0012253925
0.00089274892
0.00086313258
0.00098253508
0.0010526342
0.00095034149
0.00061346119
0.00021169551
4.498862e-05
1.9680395e-05
2.2916491e-05
6.1261186e-05
4.3813249e-05
2.549179e-05
2.6816647e-05
9.8547672e-05
0.0003493959
0.00067763593
0.00092122605
0.0010621946
0.0011294664
0.0010940992
0.00091806857
0.00063734103
0.00051328568
0.0015506027
0.001923672
0.0014825919
0.0011182767
0.00084036473
0.0008849502
0.00099565769
0.0010315932
0.00091229603
0.00055321277
0.00017313367
3.9507426e-05
1.9664915e-05
3.0651641e-05
0.00031889755
8.5427305e-05
2.3406058e-05
2.6074677e-05
7.6551318e-05
0.00029984404
0.00062483789
0.00088943245
0.0010519994
0.0011184667
0.001066595
0.00087693041
0.00059752847
0.00055906196
0.0016172768
0.0020550055
0.0014193149
0.0010513487
0.00083147782
0.0009076051
0.00098585521
0.0010140628
0.00090557278
0.0005683455
0.00021129651
5.1655388e-05
2.0497974e-05
2.267452e-05
8.6570314e-05
3.1694028e-05
2.1295323e-05
2.7200081e-05
9.9845874e-05
0.00031858062
0.00062748137
0.00088917517
0.0010530073
0.001100169
0.0010188017
0.00080802233
0.00056213003
0.00050113421
0.0019364609
0.0022056228
0.0013546674
0.001018308
0.00084454039
0.00091544073
0.00096656855
0.00099761592
0.00092694418
0.0006484368
0.00030632697
0.00010549304
3.4663108e-05
1.9569595e-05
1.8952529e-05
1.9589298e-05
2.2201461e-05
5.690367e-05
0.00017116825
0.00039246238
0.00067894877
0.00091964829
0.0010629709
0.0010683986
0.00094548297
0.00071809033
0.0005271975
0.00047652452
0.0028133414
0.0030672902
0.0013363553
0.0010071375
0.00086460889
0.00091420686
0.00094323158
0.00097300945
0.0009543007
0.00076315772
0.0004581386
0.00022204928
0.00010122334
5.187912e-05
3.9082953e-05
4.2274794e-05
7.0034329e-05
0.00014417648
0.00028872018
0.00051139934
0.00076974018
0.0009715909
0.0010638349
0.0010076061
0.00083835939
0.00061812118
0.00054188454
0.00077724032
0.0042025598
0.0013394082
0.0010020211
0.00088153218
0.00091343643
0.00092289669
0.00093338109
0.00095864415
0.00087485562
0.00065194775
0.00041577363
0.00025189931
0.00016063296
0.0001282531
0.00013875107
0.00018934906
0.00029218449
0.00045800599
0.00067453516
0.00088775476
0.0010209097
0.0010243172
0.00090502252
0.00071655047
0.0005786393
0.00072719189
0.0010885212
0.0014136692
0.00099824874
0.0008951616
0.0009124128
0.00090208272
0.00088708752
0.00092230031
0.00093274672
0.00082989135
0.00066103406
0.00050494164
0.00039049008
0.00033239566
0.00034039563
0.00040781624
0.00052564507
0.00068683355
0.00085859437
0.00098519367
0.001011486
0.00092658217
0.00076908683
0.00061727483
0.0005867819
0.00087695224
0.0015810841
0.0013536896
0.0010032557
0.00090420203
0.00091070131
0.00089944408
0.00085307749
0.00085732909
0.00090969689
0.0009152435
0.00085325325
0.00077216808
0.00070408578
0.00066098229
0.00065987321
0.00070976585
0.00079701917
0.00089726004
0.00097304909
0.00098594005
0.00091964915
0.00079354027
0.00065634794
0.00058187677
0.00067448859
0.0011449788
0.0049819492
0.0034061041
0.0010717774
0.00092213574
0.00090242364
0.00090305751
0.00083901077
0.00080162297
0.00083229114
0.00088910873
0.00090851708
0.00089917585
0.00088646204
0.00088328561
0.00089272414
0.00091452253
0.00094515083
0.00096366656
0.00094813306
0.00088692953
0.00078805198
0.0006785337
0.00061025999
0.00069783266
0.0014133094
0.0023572254
0.001169676
0.001011637
0.00090639008
0.00090615859
0.00084591427
0.00076805384
0.00075219643
0.00080003064
0.00085609077
0.00088636315
0.00089982881
0.00090834969
0.00091679375
0.00092306088
0.00091743683
0.00089227063
0.00084253805
0.00077159873
0.00069432888
0.0006330776
0.00065567779
0.00092771737
0.0010432584
0.0013166471
0.0010245327
0.00093371344
0.00087281337
0.00077581633
0.00070755257
0.00070685588
0.00075687628
0.00080710188
0.00083723417
0.00085202358
0.00085758513
0.00085470112
0.00083910989
0.00080822269
0.00076298895
0.00071072873
0.00066728541
0.00067998323
0.00088942498
0.0010576676
0.0024525725
0.0014950035
0.0011274836
0.00098378487
0.00081894833
0.00072197198
0.00065519288
0.00066014829
0.00070258886
0.00074651582
0.00077485523
0.00078696547
0.00078591398
0.00077295243
0.00074912591
0.00071830355
0.0006941738
0.00071411276
0.00087509699
0.0010047991
0.0021031588
0.0020137607
0.0014849429
0.00097383129
0.00082777606
0.00071544052
0.00062701388
0.0006117762
0.00063617166
0.00066677452
0.00068944402
0.00069504792
0.00068635464
0.00066978666
0.00065396612
0.00065976348
0.00072110658
0.0010207828
0.0019877191
0.0023400627
0.0012775686
0.0011645195
0.0010713358
0.00081382672
0.00066432393
0.00059803175
0.00056645948
0.00056115996
0.00056348659
0.00057116676
0.00059125544
0.00063497177
0.00069314425
0.0012013211
0.0022537581
0.0029841216
0.0013546274
0.0010733474
0.00072815902
0.00061276656
0.00055663266
0.00055041498
0.00059962856
0.00067807676
0.0010129109
0.002602335
0.0069071049
0.0030536172
0.0025738073
0.0021970225
0.0021590713
0.010343763
0.0048784399
0.0031089663
0.0026447365
0.0024398181
0.0023574707
0.0024776926
0.0027637918
0.0040267947
0.0034077586
0.0024476412
0.0022391183
0.0021439075
0.0020795779
0.0020577102
0.0020504686
0.0020345758
0.0019917821
0.0019218864
0.0019481275
0.001847248
0.003518857
0.005071129
0.005153743
0.0021744248
0.001884098
0.0017994279
0.0017392724
0.0016780096
0.0016236863
0.0015922112
0.0015993827
0.0016479148
0.0017165099
0.0017639292
0.0017455174
0.0016838501
0.0016011865
0.0020054251
0.0020081614
0.0029225595
0.0019724605
0.0017007594
0.0015630295
0.0014713526
0.001398163
0.0013353198
0.0012761978
0.0012248472
0.0011960439
0.0012056939
0.0012705618
0.0013896781
0.0015125744
0.0015991147
0.0015711491
0.0015784833
0.0015546062
0.0022862609
0.0024081409
0.0015700776
0.0014757127
0.0014741569
0.0014889524
0.0014940197
0.0014843863
0.0014612648
0.0014269076
0.0013738389
0.0012990949
0.0012185882
0.0011563273
0.0011533899
0.0012360067
0.0013871411
0.0015108446
0.0015310151
0.0014307707
0.0013974125
0.0019518682
0.0035559053
0.0014756118
0.0014758948
0.0015693386
0.0016334131
0.0016422661
0.0016117525
0.0015664217
0.0015214145
0.0014810264
0.001445235
0.0014052173
0.0013492592
0.0012708104
0.0011850983
0.001142193
0.0012015152
0.001355935
0.0014849468
0.0014694221
0.0013110127
0.001235653
0.0016747982
0.001829477
0.0016019998
0.0016759158
0.0017295378
0.0016910627
0.0015934605
0.0014907514
0.0014098589
0.0013489837
0.001301192
0.0012679669
0.0012572304
0.0012615764
0.0012607668
0.0012372759
0.0011803335
0.0011476706
0.0012226434
0.001382731
0.0014762735
0.0013760635
0.0011662405
0.00091196009
0.0020580239
0.0019319034
0.0016469299
0.0017136113
0.0017656499
0.0016749338
0.0015003043
0.0013422491
0.0012412953
0.0011688986
0.0010895968
0.0010027418
0.00093260473
0.00090642709
0.00094145186
0.0010228718
0.0011080999
0.0011488818
0.0011415595
0.0011586835
0.0012794885
0.0014285547
0.0014259327
0.0012249816
0.00091844166
0.00099272942
0.0017836382
0.0017365596
0.0017972258
0.0016791729
0.0014342515
0.0012256908
0.0011234816
0.0010692502
0.00097243911
0.00082012931
0.00065828028
0.00053465964
0.00047443292
0.00049938154
0.00061225345
0.00078463128
0.00096259249
0.0010692418
0.0011160708
0.0012033725
0.0013591403
0.0014308215
0.0012864484
0.00096790161
0.00074739208
0.0014810668
0.0066488774
0.0019325424
0.0018519199
0.0017552839
0.0014568541
0.0011764384
0.0010571048
0.0010299524
0.00095002623
0.00075478963
0.00051482362
0.00031618182
0.00019023471
0.00013590735
0.00014725473
0.00023724116
0.00042099023
0.00066850151
0.00089473655
0.0010355372
0.001141548
0.0012920898
0.0014052968
0.001318074
0.0010201208
0.00072277404
0.00084571985
0.0031071698
0.0019275698
0.0019157354
0.0016188405
0.0012231689
0.0010277692
0.0010075518
0.00097646234
0.00080389565
0.00051412382
0.00025619336
0.0001017723
4.1516421e-05
3.3661165e-05
3.3078725e-05
5.6846867e-05
0.00016267529
0.00039654751
0.00068210875
0.00091364746
0.0010734434
0.0012342509
0.0013668858
0.0013194983
0.0010522577
0.00071640966
0.00071549685
0.0045965848
0.0020244658
0.0018948342
0.0014228485
0.0010602808
0.00098579523
0.00099694131
0.00090789978
0.00065003566
0.00032492503
0.00011434951
3.4014546e-05
2.6392486e-05
3.1561293e-05
2.9371482e-05
2.8425854e-05
5.4624351e-05
0.00021367582
0.00050043564
0.00078646537
0.001001212
0.0011844767
0.0013265294
0.0012988747
0.0010579057
0.00072000265
0.00063911115
0.0035666768
0.0024780412
0.0020980285
0.0018216988
0.0012516915
0.00099315333
0.00099150454
0.00098075461
0.00084011869
0.00053571137
0.00022120377
6.7936876e-05
2.8236806e-05
2.7248335e-05
7.4478358e-05
5.3471753e-05
2.9570432e-05
3.3071832e-05
0.00012720932
0.0003859028
0.00068975695
0.00094013214
0.001145045
0.0012885451
0.0012612686
0.0010360709
0.00071496618
0.00059939636
0.0020363516
0.002399242
0.0021346203
0.0017368161
0.0011448665
0.00099242894
0.0010064063
0.00096250997
0.00079707505
0.00048345875
0.00019484987
6.4018081e-05
2.8392039e-05
3.4362064e-05
0.00036326576
7.1788446e-05
2.7519319e-05
3.1269003e-05
0.00010352858
0.00034312839
0.00064176979
0.00090632779
0.0011228408
0.0012523185
0.0012063567
0.00098063872
0.00069276331
0.00081604629
0.0023360649
0.0025881954
0.0021539614
0.0016799561
0.0011065167
0.0010174933
0.0010159146
0.00095226335
0.00078752584
0.00049701477
0.00022754044
8.499779e-05