/*--------------------------------*- C++ -*----------------------------------*\
| =========                 |                                                 |
| \\      /  F ield         | OpenFOAM: The Open Source CFD Toolbox           |
|  \\    /   O peration     | Version:  2406                                  |
|   \\  /    A nd           | Website:  www.openfoam.com                      |
|    \\/     M anipulation  |                                                 |
\*---------------------------------------------------------------------------*/
FoamFile
{
    version     2.0;
    format      ascii;
    arch        "LSB;label=32;scalar=64";
    class       volScalarField;
    location    "800";
    object      k;
}
// * * * * * * * * * * * * * * * * * * * * * * * * * * * * * * * * * * * * * //

dimensions      [0 2 -2 0 0 0 0];

internalField   nonuniform List<scalar> 
150387
(
0.00052568995
0.00039700533
0.0004095422
0.00046012726
0.00052206471
0.00056971894
0.00056355863
0.00058408526
0.00046927172
0.00030844765
0.00030611164
0.00032091625
0.00034068566
0.00036212347
0.00038713781
0.0004243559
0.00050702739
0.00058367283
0.00058126511
0.00051472275
0.00046638835
0.00028104207
0.00030101938
0.00036390277
0.00043126934
0.00047499541
0.00049412946
0.00049887642
0.00049254494
0.00048035435
0.00050374362
0.00055557414
0.0006346187
0.0006503094
0.00057327147
0.00044288132
0.00039680735
0.00049092764
0.00030669184
0.00038476525
0.00051023318
0.00060501036
0.00066201272
0.00068544443
0.00067974548
0.00066390421
0.00064663729
0.00062190599
0.00058423511
0.00058362749
0.00062036655
0.00069135674
0.00070883694
0.00062042942
0.00045175253
0.00036392266
0.00045190563
0.00031574484
0.00046901964
0.00063855791
0.00075587206
0.00082665357
0.00086398583
0.00087324878
0.00085803847
0.00082484277
0.00078263328
0.00074914751
0.00071988839
0.00066508532
0.00064724883
0.00068173047
0.00075127995
0.00075501571
0.00064606359
0.00044111031
0.00030811557
0.00034439109
0.00050430619
0.00070394329
0.00084137355
0.0009216902
0.00096369281
0.00097579543
0.00096599361
0.00094093438
0.00090334874
0.00085587092
0.00080256456
0.00077910289
0.00077130521
0.00071735028
0.00070631623
0.00075148088
0.00081172261
0.00078472469
0.00063624523
0.00038370794
0.0003232918
0.00035674196
0.00050565407
0.00071738968
0.00086745545
0.00094926816
0.00098391394
0.00099227767
0.00098300098
0.00095975146
0.00092755801
0.00089171791
0.0008568421
0.00081299441
0.00076245082
0.00076465298
0.0007830771
0.0007500448
0.00076317312
0.00082447274
0.00085664045
0.00078355762
0.00057779193
0.00034145317
0.00034523515
0.00046122816
0.00046947289
0.00067742584
0.00083512392
0.00091731988
0.00094310775
0.00094223022
0.00092463009
0.00089432861
0.00085700003
0.00081411675
0.00077379465
0.00074838432
0.00074264738
0.00073153208
0.00071074683
0.00073732117
0.00076809779
0.00077764681
0.00082027415
0.00088624844
0.00086905622
0.000735039
0.00046940603
0.00028829402
0.00044219162
0.00061233604
0.00076617799
0.00084415965
0.00086575186
0.00085314266
0.00083572253
0.00083137748
0.00081586824
0.00076954931
0.00070998592
0.00066163016
0.00062606722
0.00061220862
0.00061858528
0.00062972183
0.00065169557
0.00071388488
0.00076470367
0.00081145944
0.00089269675
0.00091392348
0.00083143009
0.00061306492
0.00033391805
0.00036945921
0.00053175886
0.00069141445
0.00077010486
0.00078301043
0.00076528176
0.00076830817
0.00079683838
0.00081664069
0.00075580231
0.00067702771
0.00060252813
0.00049072295
0.00039904323
0.00038023712
0.00044360043
0.00053646784
0.0005863785
0.00063479999
0.00071282343
0.00078887775
0.00088483768
0.00093204964
0.00088623618
0.00071469587
0.00042718008
0.00033086856
0.00051913556
0.0006095234
0.00069710293
0.00071346108
0.00069821489
0.00071721958
0.00078111031
0.0008370173
0.000761966
0.00065578456
0.00056589808
0.00035770312
0.00018013376
0.00011309729
9.9799306e-05
0.00012408284
0.00024454657
0.00045490259
0.00057431115
0.00064809683
0.00074682006
0.00086515136
0.0009315764
0.00091321418
0.0007758658
0.00052121228
0.00032979412
0.00055603897
0.00063015039
0.00064960546
0.00063355947
0.00065862578
0.00075261269
0.00084336082
0.00079385858
0.00066582872
0.00059930478
0.00038712552
0.00012882092
6.6343969e-05
5.7233114e-05
5.5497899e-05
6.1003092e-05
9.2594341e-05
0.00025158289
0.00048519903
0.00059644398
0.00069709298
0.00083738629
0.0009197667
0.00092078924
0.00080761143
0.00058182693
0.00034139562
0.0005401029
0.00058101446
0.00059502393
0.00058165761
0.000596794
0.00068567148
0.00082101035
0.00081655893
0.000738026
0.00063835699
0.0005401057
0.00022547295
7.1532526e-05
5.6464439e-05
5.5066048e-05
4.7147823e-05
5.1144531e-05
6.3797566e-05
0.00014315966
0.00038409594
0.0005531383
0.0006557681
0.00081031909
0.00090254246
0.00091617837
0.00081826355
0.0006144774
0.00036286511
0.00043676121
0.00056978605
0.00052733173
0.00053617351
0.00059776514
0.00074367709
0.00082823467
0.0007957083
0.00072476904
0.00063059719
0.00048335645
0.00017690241
6.6581857e-05
5.9100475e-05
0.00010926182
3.7239712e-05
4.6697979e-05
5.9877656e-05
0.00010805561
0.00032325472
0.00052178173
0.00062929608
0.00079193528
0.0008839172
0.00089925238
0.00080422499
0.0006210316
0.00038325671
0.00042254442
0.00054001771
0.00045571442
0.00050812108
0.00062371209
0.00076667953
0.00082654438
0.00080121283
0.00072553088
0.00063522347
0.00048067241
0.0001954074
7.2870363e-05
6.2278191e-05
7.0171864e-05
5.132273e-05
5.2248637e-05
6.3659098e-05
0.00011126018
0.00031641112
0.00051441715
0.00062518555
0.00077802075
0.00086231058
0.00086673553
0.00078636324
0.00060424999
0.00039607501
0.00044540125
0.00050366439
0.00040104607
0.00049206866
0.00063066424
0.00077461277
0.00083156397
0.00080603281
0.00074317932
0.00066514546
0.00052833344
0.00027294039
0.00010126436
6.4564882e-05
5.9033307e-05
5.7661257e-05
6.1507183e-05
7.8910843e-05
0.0001638538
0.00038202116
0.00053502659
0.0006472292
0.00077385628
0.00084788818
0.0008543496
0.00076557381
0.00055776061
0.00040400777
0.00049637497
0.0005087722
0.00036710161
0.00047662074
0.00062157887
0.00077735583
0.00083361034
0.00081043647
0.00076769012
0.00072085965
0.00059092246
0.0004142629
0.00019594514
9.6641981e-05
7.3339879e-05
7.3336977e-05
9.0072223e-05
0.00014192819
0.0002855315
0.00047792265
0.00057443994
0.00068333622
0.0007956192
0.00086817328
0.00084907729
0.00070836575
0.00049710418
0.00040455133
0.00056005096
0.00057604751
0.00033882196
0.00044628942
0.00060500446
0.00076276856
0.00082540221
0.00080961647
0.00078685759
0.00079467654
0.00065265417
0.00054834406
0.00040739644
0.00024294634
0.0001657575
0.00016647257
0.00021050973
0.00030881572
0.00045497969
0.00055389076
0.00062186641
0.00075549283
0.00086287053
0.00088615927
0.00079254147
0.00060878346
0.00045403372
0.00041217901
0.00032066787
0.00039531715
0.00056657328
0.00072724037
0.00080226163
0.00079749262
0.00078385055
0.00083408613
0.00076126578
0.00061722816
0.00055101964
0.00048658484
0.00042082401
0.00040432552
0.0004406188
0.00050655659
0.00056893825
0.00063073111
0.00075754309
0.00087025067
0.00089661376
0.00082093592
0.00067353929
0.00052167226
0.00044427692
0.00041301127
0.00033692416
0.00033124021
0.00050115449
0.0006734942
0.00076277907
0.00077236574
0.00075948994
0.0008258386
0.00085920453
0.00074039267
0.00063373669
0.00058777566
0.00056163433
0.00055999312
0.00058395895
0.00062775651
0.00070254667
0.00080488404
0.00087178529
0.00087388633
0.00080666079
0.00069606221
0.00058125284
0.00048935934
0.00042668956
0.00044319581
0.0002886437
0.00041066412
0.00059678154
0.0007079317
0.00073853859
0.00072256566
0.0007756459
0.0008710223
0.00085009926
0.00076044512
0.00070684759
0.00068146852
0.00068478918
0.0007149091
0.00075951146
0.00080338469
0.00082985114
0.00082004468
0.00077189735
0.00069951853
0.00062133624
0.00054090028
0.00044476797
0.00040621219
0.0003111607
0.00032096717
0.00048983351
0.00063232808
0.00069535621
0.00068611294
0.00069961596
0.00080485977
0.00087489984
0.00084694072
0.00080564583
0.00079190897
0.00078972355
0.00079342413
0.00079937275
0.00080156227
0.00078790887
0.00075549138
0.00070602714
0.00064333193
0.00056531476
0.00046058882
0.00037050548
0.00044719978
0.00031980651
0.0003616734
0.0005259933
0.00063239982
0.0006519029
0.00063114816
0.00068667648
0.00079838139
0.00084322507
0.00083154036
0.00083046566
0.00083881831
0.00083018543
0.0008147003
0.00079104922
0.00075590693
0.00070715632
0.0006431152
0.00055886215
0.000446356
0.00034650473
0.00036880357
0.00028732463
0.00039173776
0.00053150366
0.00060203262
0.00058978593
0.00057693803
0.00065146981
0.00074283567
0.00077377748
0.00077561908
0.00078634381
0.00078715468
0.00076597645
0.00073013196
0.00067801195
0.00060687005
0.00051047551
0.00038875295
0.00030553561
0.00031104203
0.00032803302
0.00039364062
0.00050652965
0.00054956738
0.00052361597
0.00051770976
0.00057835851
0.00064152148
0.00066410871
0.00066606224
0.00066021811
0.00063111442
0.00058171889
0.00051005474
0.00041662155
0.00033141566
0.0003039462
0.00034485039
0.00035587189
0.00039618196
0.000466749
0.00048437451
0.00046429616
0.00044703341
0.00046784336
0.00049865391
0.00050747476
0.00048936957
0.00044702989
0.0003871835
0.00032845965
0.00029122203
0.00029621827
0.00038150573
0.00040889203
0.00044723814
0.00043890383
0.00041923234
0.00039340777
0.00037592198
0.00035857799
0.00034003363
0.0003272174
0.00032010158
0.00031123885
0.00039243195
0.00053391106
0.00049233313
0.00044646007
0.00041361951
0.00044853835
0.00050848465
0.00051012205
0.00057439419
0.00060397515
0.00061067989
0.00065602125
0.00070309797
0.00075427803
0.00076687375
0.00077386793
0.00039706627
0.00042519313
0.00046279721
0.00050085384
0.00053385756
0.00056661721
0.00060897019
0.00067093834
0.00074766043
0.00080656344
0.0008001809
0.00075905903
0.00064838846
0.00066747935
0.00039178597
0.00044066907
0.0005304968
0.0006128663
0.00067517223
0.00071158429
0.0007222275
0.00071058226
0.00068789967
0.00067364339
0.00069337075
0.00075796354
0.00082989116
0.00086091423
0.00081221873
0.00066631792
0.00055650445
0.00042042179
0.0005397974
0.00068614977
0.00082301249
0.00092650255
0.00099355512
0.001025567
0.0010247817
0.00099229233
0.00093467351
0.00086236101
0.00079404141
0.00076365326
0.00079895054
0.00087404153
0.00092059661
0.00084654992
0.00068858864
0.0005180734
0.0004542173
0.0006311058
0.00083579298
0.0010156532
0.0011446823
0.0012279654
0.0012767678
0.001297773
0.0012939008
0.0012638346
0.0012046576
0.0011215577
0.0010231319
0.00092244514
0.00085834665
0.00087037249
0.00094417762
0.00096829437
0.00087131541
0.00067073845
0.00047600807
0.00051093147
0.00067225367
0.00090457689
0.0011026011
0.0012292083
0.0012986522
0.0013345697
0.0013500414
0.0013486401
0.0013318764
0.0013036758
0.0012655364
0.0012139361
0.0011524934
0.0010792418
0.00099333157
0.00093397261
0.00095322048
0.0010164992
0.0010081354
0.00085761394
0.00061662837
0.00044001472
0.00064646397
0.00089681776
0.0011045858
0.0012164712
0.0012560976
0.0012654115
0.00126521
0.001252489
0.0012203816
0.0011735928
0.0011251559
0.001091361
0.0010740033
0.0010649246
0.0010624494
0.0010508508
0.0010124907
0.0009924715
0.0010356383
0.0010806342
0.0010116376
0.00078471215
0.00053534774
0.00042373059
0.00057848766
0.00085123808
0.0010590088
0.0011521141
0.0011609947
0.0011482842
0.0011475663
0.0011404632
0.0010949287
0.001007921
0.00090463718
0.0008163154
0.00076296953
0.00075689178
0.00079136215
0.00085192456
0.00093290755
0.00099612803
0.0010185
0.001053179
0.0011141425
0.0011108425
0.00093933052
0.00066646501
0.00042787671
0.00076622876
0.00096977841
0.0010686783
0.0010629106
0.001036532
0.0010510666
0.0010760449
0.0010374599
0.00091191299
0.00074007035
0.00057632287
0.00045824153
0.00039771248
0.00040410538
0.0004685276
0.00057040606
0.00070227573
0.00085624898
0.0009748951
0.0010515951
0.0011282357
0.0011671648
0.0010543773
0.00078877439
0.00050340162
0.00044577183
0.00076339437
0.00085438371
0.00099080621
0.00098579152
0.00094140075
0.00096603052
0.0010394456
0.0010396641
0.00089866919
0.00066704594
0.00043635436
0.00025910184
0.00015566245
0.00011181723
0.00011877404
0.0001786828
0.00029981767
0.00045996191
0.00065867724
0.00086175386
0.0010123585
0.001124667
0.0011959623
0.0011300149
0.00089069833
0.0005694018
0.0004313767
0.00074498505
0.00090678189
0.00093381026
0.00086789462
0.00087351355
0.00098699311
0.0010617969
0.00096082279
0.00071134059
0.00043252738
0.00021065781
8.6058472e-05
5.1228486e-05
4.8967455e-05
4.9061909e-05
5.8602729e-05
0.0001208
0.00026591522
0.00047359818
0.0007222175
0.00094240836
0.0011040599
0.0012065366
0.0011743383
0.00096218625
0.00062708408
0.00042431188
0.00076965281
0.00087768136
0.00083113514
0.00078318322
0.00089198358
0.0010438483
0.0010487223
0.00085322694
0.0005655533
0.00028110162
9.763956e-05
4.4336183e-05
4.6685374e-05
4.8480067e-05
4.7943447e-05
4.7810078e-05
5.5991192e-05
0.00014449939
0.00033577006
0.00059877088
0.00086531776
0.0010745466
0.0012056077
0.0011951911
0.0010022113
0.00067274062
0.00043342838
0.00050276454
0.00079347394
0.00080555052
0.00074073291
0.00076694312
0.00095204046
0.0010771835
0.001014075
0.00078846146
0.00048701781
0.00019082342
5.9299967e-05
4.357228e-05
4.8565025e-05
5.8035128e-05
4.5578231e-05
4.3702252e-05
4.7474267e-05
9.1227902e-05
0.00025376564
0.0005145192
0.00080386973
0.0010477846
0.0011992731
0.0011973296
0.0010123786
0.00068974146
0.00044251634
0.00049487875
0.00080458691
0.00072160532
0.00068756168
0.00079114347
0.0010029693
0.0010852026
0.00099964986
0.00077466692
0.00045675225
0.00015818166
5.3804015e-05
4.3135399e-05
5.469072e-05
9.3343885e-05
5.281957e-05
4.0318365e-05
4.6518292e-05
7.7174451e-05
0.00022333521
0.000477349
0.00077273384
0.001036026
0.0011925735
0.0011826381
0.00099185329
0.00067062339
0.00040560227
0.00050347332
0.00074071249
0.00064750076
0.00066791248
0.00081979946
0.0010281083
0.0010857161
0.0010073202
0.00080088673
0.00048123277
0.00018317117
6.0568991e-05
4.3177579e-05
4.7314669e-05
6.8976114e-05
4.5830399e-05
3.923077e-05
4.7197127e-05
9.0668144e-05
0.00024038991
0.00048775878
0.00077943419
0.0010443925
0.0011854002
0.0011508625
0.00094258569
0.00062252927
0.00039327488
0.00052245217
0.00072312183
0.00058408465
0.00065954826
0.00083319778
0.0010299567
0.0010808379
0.0010277523
0.00086125627
0.00056269623
0.00025606449
9.6099605e-05
4.773476e-05
4.10551e-05
3.9806663e-05
3.9781559e-05
4.1902888e-05
6.3393856e-05
0.00013687099
0.00029929315
0.00054137362
0.00082561185
0.0010714926
0.0011746272
0.0010986278
0.00086284583
0.0005481618
0.00038135393
0.00057300253
0.00074829143
0.00053939537
0.00064377682
0.00082658167
0.001010721
0.0010659324
0.0010465559
0.00093876462
0.00069098887
0.00038427033
0.00018570889
9.3075363e-05
5.8064431e-05
5.0331096e-05
5.2605201e-05
7.0375843e-05
0.00011863429
0.00022128231
0.00039629263
0.00063897862
0.0009098232
0.0011108804
0.001149625
0.001014808
0.0007513964
0.00048099113
0.000386539
0.00064284004
0.00049726721
0.00061342105
0.00079795461
0.00097550604
0.0010362291
0.0010470654
0.0010075606
0.00084418716
0.00056985968
0.00034240962
0.00021132351
0.00013868867
0.00011089026
0.00011632838
0.00015090684
0.00022440574
0.00035338424
0.00054706556
0.00079153263
0.0010228091
0.001138311
0.0010875589
0.00089317279
0.00062915934
0.00044590025
0.00043647508
0.00046041622
0.00056637584
0.00074762674
0.00092534155
0.00099107919
0.0010190076
0.0010377836
0.000978525
0.00078905859
0.00057023832
0.00041895913
0.0003260932
0.00027743983
0.00027760909
0.00032612801
0.00042337089
0.00057585275
0.00077484764
0.00097824844
0.0011085964
0.0011043918
0.00096564269
0.00074177106
0.00053217895
0.0004613362
0.00054313911
0.00039607436
0.0005051206
0.00067476794
0.00085906775
0.00093361265
0.00096325978
0.001011266
0.001042659
0.00097318196
0.00082381016
0.00068808623
0.00060310826
0.00056326553
0.00056867215
0.00062318633
0.00072286601
0.00085730371
0.00099614418
0.0010902365
0.0010923435
0.00099029068
0.00081145393
0.00061335633
0.0004864822
0.0004432744
0.00064799828
0.00039673556
0.00043431192
0.00058172288
0.00077065313
0.00086564397
0.00089217495
0.00093399085
0.0010108726
0.0010478732
0.0010056738
0.0009307035
0.00087526053
0.00085341249
0.00086513807
0.00090709389
0.00097101344
0.0010378961
0.0010790031
0.0010648163
0.00098100847
0.00083729761
0.0006652241
0.0005248844
0.00046797397
0.0004790656
0.00038485262
0.00048553667
0.00065614905
0.00077931827
0.00081887328
0.00083593194
0.00090440877
0.00099389811
0.0010407915
0.0010392528
0.0010226301
0.0010148535
0.0010207533
0.0010367668
0.001052956
0.0010543309
0.0010243506
0.00095161772
0.00083623092
0.00069300177
0.00055716894
0.00046707361
0.00044189318
0.00038463354
0.00053221993
0.00066489377
0.00073538453
0.00074724546
0.00077230423
0.0008545658
0.0009432712
0.0010011718
0.0010270188
0.0010370142
0.001039481
0.0010344625
0.0010168989
0.00097907746
0.0009136219
0.00081723611
0.00069513602
0.00056698009
0.0004682837
0.0004232532
0.00048736809
0.00042128807
0.00054283426
0.00062922003
0.0006697408
0.00066159896
0.00069317303
0.00076635135
0.00084502968
0.00090147708
0.00093048683
0.00093771653
0.00092554581
0.00089240878
0.00083574381
0.0007539831
0.00065092739
0.00054089945
0.00045284077
0.00040691907
0.00045509779
0.00045100986
0.00052634206
0.00059015986
0.00059037097
0.00057698412
0.00059272458
0.00063926567
0.00069658174
0.00073724683
0.00075145418
0.00073956753
0.00070247247
0.00064434072
0.00057133782
0.00049654852
0.00043097054
0.0003750833
0.00042713845
0.00050932198
0.00050830901
0.00056224339
0.00054049021
0.00051335885
0.00048725149
0.00049033244
0.00050786274
0.00051582877
0.00050699456
0.00048026185
0.00044674369
0.00041359645
0.00037787402
0.00037060026
0.00059043503
0.00057289614
0.00053577046
0.00046661733
0.00041135302
0.00038678438
0.00037972491
0.00037501399
0.00037134354
0.00038178366
0.00042468609
0.00042277526
0.00075983639
0.0006501966
0.00057344081
0.00051248719
0.00048353891
0.00081964415
0.00089733599
0.00090749541
0.00089054973
0.00090622615
0.00091730121
0.00092167858
0.00086161457
0.00085220944
0.00055910718
0.00066195821
0.00071862588
0.00078048799
0.00084293658
0.00091325042
0.0009900432
0.0010699723
0.0011277378
0.0011361469
0.0010572613
0.00094318581
0.00071414679
0.00072331057
0.00044505968
0.00056219931
0.00066332495
0.0007464595
0.00081355015
0.00086109388
0.00088831942
0.0009013408
0.00091824546
0.00095905772
0.0010339878
0.0011290749
0.0011894922
0.0011764433
0.001053816
0.00078931525
0.00065947791
0.00045618085
0.00058111671
0.00073782391
0.00089739175
0.0010265328
0.001116851
0.0011673308
0.0011791709
0.0011536333
0.0011021264
0.0010443593
0.0010115588
0.0010365441
0.0011222515
0.0012162206
0.0012474043
0.0010821646
0.00083925441
0.00057805512
0.00051116195
0.00068398972
0.00093633126
0.0011661197
0.0013366127
0.0014472294
0.0015109366
0.0015385653
0.0015368423
0.001504846
0.0014378572
0.0013396566
0.0012258498
0.0011298092
0.0011007029
0.0011602541
0.0012697094
0.001276066
0.001110658
0.00080329631
0.00052471886
0.00057969239
0.00076925873
0.0010705081
0.0013348354
0.0015034759
0.0015880318
0.0016200628
0.0016234173
0.0016094615
0.0015848019
0.0015560811
0.0015231524
0.0014747066
0.0014006243
0.0013008899
0.0012027338
0.0011639709
0.0012302699
0.0013272458
0.001301107
0.0010710145
0.00071943521
0.00047095596
0.00073946354
0.0010917282
0.0013910478
0.0015440734
0.0015789364
0.0015569925
0.0015178484
0.0014692605
0.0014097151
0.0013475872
0.0012980463
0.0012787929
0.0012878705
0.0013051997
0.0013048686
0.0012689595
0.0012164786
0.0012196031
0.0013125856
0.0013821653
0.0012746609
0.00094992705
0.00058627087
0.00051162505
0.00063225605
0.0010655435
0.0013783423
0.0015114759
0.0014946868
0.0014260185
0.0013664809
0.0013091826
0.0012232642
0.0011064662
0.00098562793
0.00089324142
0.00085231917
0.00087687072
0.00095534058
0.0010589842
0.0011497786
0.0011943383
0.0012150796
0.0012891845
0.0013972417
0.0013917443
0.0011497431
0.00074918367
0.00047978359
0.00092288182
0.0012694872
0.0014369335
0.0014051109
0.001306781
0.0012514276
0.0012233105
0.001143684
0.00098312763
0.00078386414
0.00060249099
0.00047634937
0.00041596167
0.00043498497
0.00053314857
0.00069025047
0.00087450316
0.001040109
0.0011526346
0.0012539952
0.0013835391
0.0014459877
0.0012875847
0.00090474791
0.00053606306
0.0004969471
0.0008162686
0.0010823842
0.0013496067
0.0013539609
0.0012284768
0.0011676388
0.0011851081
0.0011503706
0.0009808111
0.00071939658
0.00046390347
0.00027392095
0.00016541348
0.00012042593
0.00012981773
0.00019908789
0.00035157731
0.00056745551
0.00080882081
0.0010204353
0.00118924
0.0013532483
0.0014638912
0.0013712933
0.0010297069
0.0005980019
0.00048276816
0.00082235321
0.001208965
0.0013281735
0.0012000685
0.0010977506
0.0011399199
0.0011830821
0.0010661313
0.00079128013
0.00047210253
0.00022782242
9.6290623e-05
5.6374212e-05
5.2497392e-05
5.2981836e-05
6.4065673e-05
0.00013888469
0.00032517996
0.00058451214
0.00085936874
0.0010997075
0.0013111202
0.0014615724
0.0014150487
0.0011139374
0.00065618971
0.00045466386
0.00087130195
0.0012375058
0.0012243685
0.0010590997
0.0010632903
0.0011758918
0.001170843
0.00096268475
0.00062776295
0.00029982802
0.00010935909
4.9678164e-05
4.8405825e-05
4.9492457e-05
4.9164218e-05
5.028615e-05
6.2032788e-05
0.00017646078
0.00041633837
0.00071609205
0.0010093225
0.0012672365
0.001449721
0.0014303942
0.0011583214
0.00071205229
0.00044519373
0.00050510588
0.00097199662
0.0011998979
0.0011023777
0.00097968639
0.0010946028
0.0012105923
0.0011413486
0.00088367072
0.00052312946
0.0002056228
7.2360825e-05
4.8015065e-05
4.9357137e-05
5.8877841e-05
4.7876657e-05
4.5536571e-05
5.1584757e-05
0.00011244031
0.00031839311
0.00061876101
0.00094218079
0.0012345312
0.0014364395
0.0014235243
0.0011637157
0.0007320456
0.00044904545
0.00051159945
0.0010645153
0.0011202463
0.00099716413
0.00095769487
0.0011418007
0.0012266629
0.001119941
0.00084949122
0.00048050054
0.00017987762
6.9256303e-05
4.6844455e-05
5.3445457e-05
9.3870814e-05
6.6608665e-05
4.2161405e-05
5.1003296e-05
9.7442158e-05
0.00028523623
0.000577726
0.00091511734
0.0012262902
0.001425123
0.0013949232
0.0011284269
0.00070764767
0.00043029299
0.00054493934
0.00095899109
0.0010256479
0.00092488933
0.00096499774
0.0011757161
0.001231095
0.0011191735
0.00086177344
0.00050442463
0.00021153423
8.3494768e-05
4.8291901e-05
4.7100459e-05
7.5901495e-05
5.1344113e-05
4.0909349e-05
5.4622538e-05
0.00012015252
0.00030816251
0.00059496292
0.00093584308
0.0012443646
0.0014108884
0.00134182
0.0010553072
0.00065515577
0.00041444668
0.00060665285
0.00096879878
0.00092395102
0.00087907953
0.00097450176
0.0011883624
0.0012311496
0.0011377231
0.00091783629
0.00058963798
0.00029062351
0.0001318046
6.8824773e-05
4.7592069e-05
4.2308839e-05
4.243531e-05
4.8412843e-05
8.5470675e-05
0.00018483308
0.00038151008
0.00066807249
0.0010015519
0.0012783661
0.0013830604
0.0012577247
0.00094732614
0.00058451669
0.00041058489
0.00069460005
0.0010043411
0.000840933
0.00083885306
0.0009695902
0.0011816156
0.0012277941
0.001162876
0.0010002308
0.00072420922
0.00042623747
0.00022901271
0.0001318221
8.8126489e-05
7.2553554e-05
7.4520845e-05
0.00010007647
0.00016648013
0.00029360613
0.00050417772
0.00079233778
0.0010987894
0.0013080296
0.0013260351
0.0011385729
0.00082040416
0.00053987169
0.00045691519
0.00093924005
0.00076591471
0.00079075465
0.00094141883
0.0011611599
0.0012165252
0.0011788249
0.0010826421
0.00088792461
0.00062276882
0.00039926896
0.00026017547
0.00018633464
0.00016015462
0.00016795899
0.00021035762
0.00030115263
0.00045574141
0.00068311115
0.00095780472
0.001199072
0.0013045802
0.0012257399
0.00099258198
0.00070437714
0.00052939152
0.00054272299
0.0007050068
0.00073056584
0.00088727376
0.0011230311
0.0011952792
0.0011744801
0.0011336537
0.0010383764
0.00085286294
0.00064735285
0.00048794329
0.00038457297
0.00033661451
0.00034496529
0.00040587449
0.00052048493
0.00069370285
0.00091116905
0.0011237795
0.0012527751
0.00123836
0.0010830284
0.00084561558
0.00062813283
0.00055595633
0.00062519195
0.00062064361
0.00065759473
0.00080258372
0.0010590709
0.0011615525
0.0011502057
0.0011337369
0.0011234607
0.0010483767
0.00091660863
0.00078791236
0.00069485249
0.00064599857
0.00065002203
0.00071077275
0.00082013151
0.00096513729
0.0011132928
0.0012137646
0.0012188933
0.0011173346
0.00094016708
0.0007426895
0.00059516158
0.00052637799
0.00071615733
0.00057448651
0.00056859225
0.00068793759
0.00095596381
0.0011070479
0.0011145909
0.0010911422
0.0011164812
0.0011369007
0.0011050449
0.0010441143
0.00099134052
0.00096471469
0.00097029574
0.0010101272
0.0010773877
0.0011512069
0.0012012699
0.0011969647
0.00112375
0.00099097429
0.0008225678
0.00065504477
0.00055574271
0.00055438836
0.00047919427
0.00056300858
0.00080490647
0.0010105801
0.0010661577
0.0010356606
0.0010411417
0.0011006288
0.001148473
0.0011614846
0.0011549964
0.0011499112
0.0011554432
0.0011719532
0.0011920863
0.0012009686
0.0011815959
0.0011217164
0.0010185204
0.00087699011
0.00071189736
0.00057022878
0.00051565032
0.00042320577
0.00062747928
0.00085359952
0.00097829341
0.00098184215
0.00094838983
0.00098352455
0.0010579082
0.0011268293
0.0011695821
0.001191393
0.0012015482
0.0012031415
0.0011934752
0.0011652743
0.0011101135
0.0010208014
0.00089295651
0.00073272521
0.00057962594
0.00049834038
0.00054158237
0.00046363294
0.00066613807
0.00082207156
0.00090667741
0.00087093632
0.0008545514
0.00089029275
0.00096214988
0.0010339598
0.0010823181
0.0011052214
0.0011052803
0.0010824835
0.0010340153
0.00095445271
0.0008404627
0.00069750523
0.00055903434
0.00048827308
0.00050217132
0.00052300836
0.00063369299
0.00077729038
0.0007967726
0.00076576229
0.00074337751
0.00075402518
0.00080267969
0.00085480264
0.00088549507
0.00088417478
0.00085114196
0.0007899904
0.00070261515
0.00060050682
0.00050106879
0.00043339004
0.0004714929
0.00054985156
0.00060110608
0.00070454916
0.00071110243
0.00069014669
0.00063690252
0.00059948288
0.000592315
0.00059205726
0.00058160921
0.00055087027
0.00051590942
0.00047554545
0.0004467401
0.00044118386
0.000650349
0.00065678567
0.00067009984
0.00062855285
0.00055643217
0.00050122509
0.00046734571
0.00044667439
0.00043602612
0.00044224653
0.00046726783
0.00046449089
0.00086811253
0.00080047157
0.00074095708
0.00066108471
0.00058261337
0.001148479
0.0011871761
0.001183648
0.0011638735
0.0011498523
0.001126318
0.0010815812
0.00093645317
0.00091208799
0.00095692683
0.0010814253
0.001166303
0.0012565521
0.0013429781
0.0014281786
0.0015020705
0.0015544172
0.0015514561
0.0014801603
0.0013109462
0.0011097474
0.0007994025
0.00075614853
0.00076310022
0.00088483676
0.00097866987
0.0010711808
0.0011493189
0.00120811
0.0012512939
0.0012892103
0.0013413359
0.0014187872
0.0015123955
0.001593764
0.0016027949
0.0015106729
0.0012880817
0.00090724081
0.00068780541
0.00062021763
0.00075207733
0.00088867602
0.001036628
0.0011634746
0.0012556648
0.0013110906
0.001329428
0.0013178456
0.0012959216
0.0012874355
0.0013211125
0.0014132083
0.0015402158
0.0016289391
0.0016019535
0.0013319477
0.00096834463
0.00061793595
0.0005466471
0.00075857861
0.0010130049
0.00126686
0.0014743039
0.0016171676
0.0017003436
0.0017350599
0.0017324404
0.0016930611
0.0016171558
0.0015204291
0.0014262909
0.0013766709
0.0014159238
0.0015379986
0.0016661971
0.0016209898
0.0013457758
0.00089953123
0.00055295397
0.00059846432
0.00082005531
0.0011702541
0.0015024881
0.0017353948
0.0018595531
0.0019024326
0.0018959042
0.001862865
0.0018190555
0.0017761533
0.0017326902
0.0016762436
0.0015966815
0.0015016797
0.0014346412
0.0014589698
0.0015927405
0.0017066496
0.0016158868
0.0012540299
0.00077266092
0.0004765616
0.00079964869
0.0012434342
0.0016408913
0.001866713
0.0019295296
0.0018931708
0.0018143057
0.0017199751
0.0016216449
0.0015330712
0.0014706688
0.0014515095
0.0014695993
0.0014981754
0.0015028356
0.0014720318
0.00144925
0.0015181058
0.0016727433
0.0017341546
0.0015273346
0.0010586142
0.00059454714
0.00050497623
0.0006562999
0.0012485342
0.0016778974
0.001888334
0.0018857501
0.0017758926
0.0016478672
0.0015223312
0.0013837497
0.0012322269
0.0010918055
0.00099197067
0.00095591892
0.00099871716
0.0011069743
0.0012399397
0.0013450988
0.0013995056
0.0014598371
0.0016040989
0.0017481193
0.0016859301
0.0013093181
0.00078259641
0.00047055646
0.0010626468
0.0015598561
0.0018275905
0.0018143165
0.0016598795
0.0015158087
0.0014068075
0.0012722812
0.0010801848
0.00086265708
0.00067172715
0.00054083025
0.00048099252
0.00050765395
0.00062841199
0.00082538766
0.0010470529
0.0012303606
0.0013641775
0.0015235234
0.0017104393
0.0017546332
0.0014822113
0.00096153568
0.0005288025
0.00049404095
0.00085693736
0.0013020533
0.0017197453
0.0017815603
0.0016023751
0.001436298
0.0013610121
0.0012705765
0.0010748663
0.00079839877
0.00053052883
0.00033398149
0.00021672552
0.00016676878
0.00017493587
0.00025728625
0.00044029019
0.00070291915
0.00097945978
0.0012109063
0.0014234067
0.0016494034
0.0017678167
0.0015844346
0.0011043387
0.00059889048
0.00048146986
0.00088134517
0.0015109975
0.0017627418
0.0016221273
0.001400378
0.0013304567
0.0013090745
0.0011650351
0.00087510949
0.00054109279
0.00028335374
0.00013954589
8.02641e-05
6.8238467e-05
6.7278615e-05
8.8728759e-05
0.00018834122
0.00042171915
0.00073023721
0.0010328319
0.0013087878
0.0015790702
0.0017507943
0.0016325647
0.0012001131
0.00066248907
0.00046364841
0.00095790281
0.0016157455
0.001698199
0.0014369794
0.0012919936
0.0013211194
0.0012803264
0.0010523993
0.00069786392
0.00035825327
0.00015528258
7.6422759e-05
6.1622515e-05
6.0689549e-05
5.9088549e-05
6.1220965e-05
8.7234854e-05
0.00024301961
0.00053874509
0.00087506922
0.0012012196
0.0015131424
0.00172071
0.0016417444
0.0012494681
0.00072087399
0.00047055253
0.00055831576
0.0011393923
0.0016410543
0.0015881674
0.0012934238
0.0012727328
0.0013429857
0.0012455708
0.00096006293
0.00058136612
0.00026471625
0.00011517757
6.9184103e-05
6.0125417e-05
6.9865035e-05
5.5861509e-05
5.3213982e-05
6.6089482e-05
0.00016222164
0.0004266067
0.00076812052
0.0011233209
0.0014652268
0.001689258
0.001620839
0.0012517023