/*--------------------------------*- C++ -*----------------------------------*\
| =========                 |                                                 |
| \\      /  F ield         | OpenFOAM: The Open Source CFD Toolbox           |
|  \\    /   O peration     | Version:  2406                                  |
|   \\  /    A nd           | Website:  www.openfoam.com                      |
|    \\/     M anipulation  |                                                 |
\*---------------------------------------------------------------------------*/
FoamFile
{
    version     2.0;
    format      ascii;
    arch        "LSB;label=32;scalar=64";
    class       volScalarField;
    location    "800";
    object      nut;
}
// * * * * * * * * * * * * * * * * * * * * * * * * * * * * * * * * * * * * * //

dimensions      [0 2 -1 0 0 0 0];

internalField   nonuniform List<scalar> 
150387
(
9.8177873e-06
1.2609345e-05
1.4133592e-05
1.6784948e-05
1.9218617e-05
1.6670206e-05
1.1219808e-05
7.7775795e-06
3.734403e-06
9.6646774e-06
1.1303826e-05
1.2832345e-05
1.4324247e-05
1.5527196e-05
1.647892e-05
1.7700027e-05
2.1490149e-05
2.4339492e-05
2.2778119e-05
1.743796e-05
6.9610441e-06
8.4293202e-06
1.0653022e-05
1.5173104e-05
1.9679664e-05
2.223578e-05
2.3000404e-05
2.289082e-05
2.2229581e-05
2.1066724e-05
2.193216e-05
2.3998852e-05
2.8103099e-05
2.8188142e-05
2.2530235e-05
1.3836921e-05
5.8129405e-06
3.5700538e-06
9.3889155e-06
1.5339158e-05
2.3484704e-05
2.8602074e-05
3.0513475e-05
3.0023916e-05
2.8241174e-05
2.6873167e-05
2.6374517e-05
2.6071151e-05
2.4554782e-05
2.4648289e-05
2.6468686e-05
3.0607952e-05
3.1707866e-05
2.6223537e-05
1.5888033e-05
6.3851423e-06
2.8479092e-06
9.4681057e-06
1.9824354e-05
3.0406304e-05
3.5860425e-05
3.7504093e-05
3.6571197e-05
3.4102514e-05
3.0976017e-05
2.8234477e-05
2.6259242e-05
2.5713034e-05
2.6320041e-05
2.5536178e-05
2.5834306e-05
2.8201645e-05
3.2872462e-05
3.3980008e-05
2.8134406e-05
1.4989935e-05
7.4887454e-06
1.0351826e-05
2.1536287e-05
3.3534562e-05
3.9360617e-05
4.0817382e-05
3.9469544e-05
3.6386954e-05
3.2728511e-05
2.9045325e-05
2.5717224e-05
2.3342103e-05
2.1910115e-05
2.2474661e-05
2.4781765e-05
2.5255702e-05
2.6999657e-05
3.0537708e-05
3.522477e-05
3.532412e-05
2.7680174e-05
1.289044e-05
6.1857284e-06
9.736077e-06
2.0598145e-05
3.3792842e-05
4.0419142e-05
4.1862297e-05
4.024337e-05
3.6969346e-05
3.2966585e-05
2.8862537e-05
2.5141838e-05
2.1983845e-05
1.9699354e-05
1.8122828e-05
1.7323363e-05
1.9088624e-05
2.2768656e-05
2.4917031e-05
2.845191e-05
3.3388533e-05
3.7098015e-05
3.5287495e-05
2.4634013e-05
1.0125071e-05
5.2247741e-06
3.6852214e-06
1.7024519e-05
3.100749e-05
3.8987808e-05
4.0805903e-05
3.9063009e-05
3.567673e-05
3.1036864e-05
2.6123546e-05
2.1848818e-05
1.8429678e-05
1.5935412e-05
1.4344504e-05
1.3787756e-05
1.3643258e-05
1.4007296e-05
1.6641797e-05
2.0939156e-05
2.5342918e-05
3.0382216e-05
3.6146486e-05
3.788433e-05
3.3076397e-05
1.8496058e-05
8.2382504e-06
1.3712313e-05
2.6583152e-05
3.5864519e-05
3.8288609e-05
3.6668091e-05
3.3038831e-05
2.8402969e-05
2.4168981e-05
2.0096007e-05
1.6253053e-05
1.3449448e-05
1.1952584e-05
1.1055918e-05
1.0408014e-05
1.0241018e-05
1.0496875e-05
1.1803678e-05
1.5558973e-05
2.0835396e-05
2.6701993e-05
3.3877397e-05
3.7894763e-05
3.6773866e-05
2.705682e-05
1.1632031e-05
9.1921986e-06
2.0072982e-05
3.143824e-05
3.5530229e-05
3.4234232e-05
3.0564429e-05
2.7219134e-05
2.3902995e-05
2.0323302e-05
1.5289951e-05
1.2083849e-05
1.0881959e-05
9.3731468e-06
7.9814726e-06
7.7571128e-06
8.8246014e-06
9.8182853e-06
9.9937862e-06
1.1680177e-05
1.620549e-05
2.2607175e-05
3.0613772e-05
3.646772e-05
3.7786646e-05
3.2080905e-05
1.7382246e-05
1.0351372e-05
1.0192442e-05
2.5268769e-05
3.1872491e-05
3.2116704e-05
2.9092655e-05
2.7111898e-05
2.5228793e-05
2.2273206e-05
1.5645107e-05
1.1188517e-05
9.9783534e-06
7.2583087e-06
4.2241883e-06
3.2596346e-06
3.2850227e-06
3.6965504e-06
5.6969231e-06
8.950485e-06
1.0323027e-05
1.2906119e-05
1.8744379e-05
2.7107114e-05
3.4066678e-05
3.7332222e-05
3.4313247e-05
2.3100602e-05
1.1050376e-05
1.5020781e-05
2.7081732e-05
2.9502123e-05
2.7520394e-05
2.659335e-05
2.6898284e-05
2.4870109e-05
1.7985045e-05
1.1631751e-05
9.9487599e-06
7.8516723e-06
3.4546515e-06
3.0939306e-06
3.5710414e-06
3.6180389e-06
3.6893813e-06
3.19097e-06
5.8586867e-06
9.4483715e-06
1.1281408e-05
1.5752188e-05
2.4025185e-05
3.1519574e-05
3.6053437e-05
3.5031224e-05
2.6704693e-05
1.2641715e-05
8.1670385e-06
2.1054942e-05
2.5938535e-05
2.6089953e-05
2.5766103e-05
2.7195313e-05
2.7758858e-05
2.1441537e-05
1.5121411e-05
1.0612103e-05
9.5911557e-06
5.323633e-06
3.1285045e-06
3.5709327e-06
3.0895096e-06
3.0768347e-06
3.9987245e-06
3.605264e-06
4.1000055e-06
8.1439361e-06
1.0458775e-05
1.3857332e-05
2.1795255e-05
2.9477931e-05
3.4671548e-05
3.5209189e-05
2.8616013e-05
1.4310198e-05
1.0981527e-05
2.0882022e-05
2.2976056e-05
2.4297985e-05
2.6018185e-05
2.9079361e-05
2.6247425e-05
1.9781227e-05
1.4501147e-05
1.0547735e-05
9.1484998e-06
4.5164606e-06
3.3322215e-06
2.9644839e-06
2.4725338e-06
2.4501394e-06
3.8492541e-06
4.3335005e-06
3.7146158e-06
7.3919179e-06
9.9241336e-06
1.2872451e-05
2.0527859e-05
2.7842536e-05
3.3224883e-05
3.4655646e-05
2.8949294e-05
1.5863839e-05
1.0287653e-05
1.9481207e-05
1.9706162e-05
2.3326374e-05
2.7790657e-05
2.9455524e-05
2.5610447e-05
2.0150139e-05
1.4893803e-05
1.116916e-05
9.2365312e-06
4.7276778e-06
3.2566101e-06
3.2895244e-06
3.1581786e-06
2.3126242e-06
4.0538475e-06
4.1867806e-06
3.8811588e-06
7.4209923e-06
9.5829074e-06
1.258461e-05
1.9624532e-05
2.6654766e-05
3.1920599e-05
3.4135065e-05
2.7929133e-05
1.6909164e-05
1.0089803e-05
1.7103827e-05
1.7071388e-05
2.3025314e-05
2.8306612e-05
3.0106613e-05
2.6461388e-05
2.1509887e-05
1.6445653e-05
1.2448352e-05
9.9177158e-06
5.9967435e-06
3.3539935e-06
3.6932918e-06
4.1343592e-06
4.1977908e-06
4.058683e-06
3.6667965e-06
4.7298225e-06
8.0914465e-06
9.6361839e-06
1.3097075e-05
1.9579301e-05
2.6663496e-05
3.2343849e-05
3.385932e-05
2.5401776e-05
1.7333529e-05
4.5933051e-06
1.2042854e-05
1.5225025e-05
2.2693597e-05
2.8424046e-05
3.1666148e-05
2.8523455e-05
2.3819951e-05
1.8930113e-05
1.4718669e-05
1.0785517e-05
8.242557e-06
4.8567397e-06
3.5358405e-06
3.5716121e-06
3.5849773e-06
3.6337379e-06
4.2909999e-06
6.6232312e-06
9.0186837e-06
1.0400328e-05
1.4594256e-05
2.1455335e-05
2.9115836e-05
3.427685e-05
3.2000741e-05
2.2145725e-05
1.565849e-05
7.6287643e-06
8.4347644e-06
1.3298849e-05
2.1240944e-05
2.8700395e-05
3.3347391e-05
3.1182394e-05
2.6620962e-05
2.2018544e-05
1.8694802e-05
1.2251307e-05
9.8910822e-06
8.1845284e-06
5.8803484e-06
4.8389326e-06
4.7845228e-06
5.3545219e-06
6.8762438e-06
8.9368035e-06
1.0029558e-05
1.2089857e-05
1.8417486e-05
2.6471426e-05
3.3193493e-05
3.4306698e-05
2.7563441e-05
1.989583e-05
1.5801634e-05
1.1222905e-05
1.7997715e-05
2.7562424e-05
3.3936754e-05
3.3421656e-05
2.9413194e-05
2.5066615e-05
2.3004507e-05
1.6810234e-05
1.1297043e-05
9.65968e-06
9.0342783e-06
8.5849694e-06
8.4808103e-06
8.9388547e-06
9.8103022e-06
1.0661893e-05
1.2428067e-05
1.8060693e-05
2.5909418e-05
3.2262567e-05
3.4106924e-05
2.9932567e-05
2.3154656e-05
1.9106354e-05
8.8136706e-06
9.8701944e-06
1.3453952e-05
2.4284297e-05
3.2792867e-05
3.442117e-05
3.168991e-05
2.7633986e-05
2.6594766e-05
2.3599248e-05
1.6526336e-05
1.2221738e-05
1.0733059e-05
1.0203428e-05
1.0449785e-05
1.1214985e-05
1.253149e-05
1.5391011e-05
2.0706116e-05
2.662993e-05
3.1240184e-05
3.2677032e-05
3.0202655e-05
2.5929629e-05
2.1509862e-05
1.4791887e-05
8.1086941e-06
9.9665641e-06
1.843538e-05
2.955477e-05
3.3721535e-05
3.2780753e-05
2.9447927e-05
2.8789064e-05
2.8880826e-05
2.41929e-05
1.8808648e-05
1.6189688e-05
1.5263527e-05
1.5580304e-05
1.6926323e-05
1.9482708e-05
2.2946645e-05
2.6826572e-05
2.9888588e-05
3.1084983e-05
3.0048676e-05
2.7836537e-05
2.448608e-05
1.7728858e-05
1.0591369e-05
7.5633626e-06
1.1879681e-05
2.3066135e-05
3.1055879e-05
3.2754727e-05
3.018184e-05
2.8938347e-05
3.1255206e-05
3.0650449e-05
2.6548338e-05
2.3583997e-05
2.2752904e-05
2.315583e-05
2.4282341e-05
2.5912766e-05
2.8172537e-05
3.0174524e-05
3.1094327e-05
3.0730019e-05
2.9161099e-05
2.5915318e-05
1.9323558e-05
1.1830493e-05
4.4923142e-06
8.8179197e-06
1.3876461e-05
2.5041288e-05
3.0808341e-05
3.0529288e-05
2.7864994e-05
2.9477347e-05
3.3024575e-05
3.2271207e-05
3.0043322e-05
2.9506405e-05
3.0235854e-05
3.1116254e-05
3.1817057e-05
3.2354408e-05
3.2420138e-05
3.1651278e-05
2.9690509e-05
2.5803747e-05
1.8591469e-05
9.5448444e-06
4.9027848e-06
7.4613383e-06
1.5674117e-05
2.4852957e-05
2.9066267e-05
2.7562577e-05
2.5928649e-05
2.9338501e-05
3.2966219e-05
3.3094186e-05
3.2430269e-05
3.3045452e-05
3.359286e-05
3.3452692e-05
3.280062e-05
3.130213e-05
2.8448945e-05
2.3336077e-05
1.553584e-05
9.5197255e-06
6.6827929e-06
6.7051302e-06
1.4177497e-05
2.2605528e-05
2.6176671e-05
2.4442343e-05
2.3828735e-05
2.7139801e-05
3.0291736e-05
3.1193054e-05
3.1284802e-05
3.1115618e-05
2.9865135e-05
2.7529184e-05
2.3673603e-05
1.7839857e-05
1.192995e-05
8.2496581e-06
5.3082665e-06
4.1652978e-06
1.1864564e-05
1.9416822e-05
2.1713743e-05
2.1522368e-05
2.0670354e-05
2.1969582e-05
2.4088224e-05
2.4926371e-05
2.3967919e-05
2.1171148e-05
1.7122121e-05
1.308472e-05
1.0213831e-05
7.972553e-06
4.2390226e-06
4.1296415e-06
1.3245741e-05
1.7213865e-05
1.7913522e-05
1.7563153e-05
1.682196e-05
1.5574616e-05
1.411106e-05
1.2433023e-05
1.1242406e-05
8.8963415e-06
7.7176778e-06
8.0934193e-06
1.0384613e-05
1.0418898e-05
1.0520664e-05
1.150356e-05
7.2240877e-06
7.4884498e-06
1.9059122e-05
2.9057133e-05
2.9884742e-05
3.1569387e-05
3.1960176e-05
2.9115639e-05
2.836858e-05
1.7196604e-05
1.479114e-05
2.438119e-05
2.9605179e-05
3.4549084e-05
3.874429e-05
4.2183802e-05
4.5844639e-05
5.071238e-05
5.6974719e-05
5.8349646e-05
4.7349204e-05
4.0400931e-05
1.2695232e-05
8.7055257e-06
7.5452716e-06
2.545134e-05
3.7478648e-05
4.9071892e-05
5.8439943e-05
6.468105e-05
6.7702546e-05
6.7310907e-05
6.4324589e-05
6.1254668e-05
6.2007902e-05
6.8241246e-05
7.4854618e-05
7.2182436e-05
5.9752244e-05
2.5976045e-05
1.9698291e-05
1.0003644e-05
2.9935806e-05
5.1611979e-05
7.2119102e-05
8.7403077e-05
9.7038978e-05
0.00010150211
0.00010163661
9.8653439e-05
9.3508799e-05
8.6826362e-05
7.8574031e-05
7.2727846e-05
7.672828e-05
8.4443792e-05
8.5448367e-05
6.854669e-05
4.0994172e-05
1.5130815e-05
1.0393169e-05
3.6418877e-05
6.8204082e-05
9.5598233e-05
0.00011360069
0.0001234214
0.00012712603
0.0001264551
0.00012278269
0.00011724875
0.00011051618
0.00010368598
9.7946002e-05
9.1068261e-05
8.5301969e-05
8.6816101e-05
9.5551513e-05
9.3714103e-05
7.5505256e-05
4.2201334e-05
1.5146963e-05
8.5949338e-06
3.7401525e-05
7.4233352e-05
0.00010500894
0.00012286254
0.0001305139
0.00013133322
0.00012790824
0.00012195854
0.00011487944
0.00010770479
0.00010134906
9.619847e-05
9.3443187e-05
9.262267e-05
9.236943e-05
9.245985e-05
9.6963242e-05
0.00010515482
0.00010081359
7.544927e-05
3.8249679e-05
1.3115842e-05
2.5944438e-05
6.7133606e-05
0.00010280847
0.00012065095
0.00012611788
0.00012375173
0.0001175016
0.00010864747
9.8367178e-05
8.8591521e-05
8.0646175e-05
7.5380136e-05
7.255966e-05
7.2614443e-05
7.565636e-05
8.2114248e-05
8.9076745e-05
9.7213404e-05
0.00010685424
0.00011361182
0.00010296117
6.7535469e-05
3.5100343e-05
1.0215331e-05
1.7768328e-05
5.9832765e-05
9.4036039e-05
0.00011099513
0.00011530922
0.00011254521
0.00010599781
9.5543899e-05
8.1270373e-05
6.6747083e-05
5.4936545e-05
4.7024236e-05
4.2815292e-05
4.2403486e-05
4.5007895e-05
5.0284861e-05
6.0428746e-05
7.3957741e-05
8.8593108e-05
0.00010376252
0.00011649907
0.00011840314
9.4049786e-05
5.6723013e-05
2.1301955e-05
4.1452628e-05
7.7189785e-05
9.7393962e-05
0.00010350457
0.00010259085
9.883384e-05
8.9973713e-05
7.3375737e-05
5.5091394e-05
3.991643e-05
2.9241884e-05
2.2870879e-05
2.0091874e-05
2.0834543e-05
2.4450807e-05
3.0032118e-05
3.8896064e-05
5.4062216e-05
7.3678742e-05
9.465039e-05
0.00011369033
0.00012445434
0.00011180883
7.6884923e-05
3.6769695e-05
1.3664445e-05
9.7265895e-06
5.1353457e-05
8.2629326e-05
9.1970475e-05
9.2668139e-05
9.3477301e-05
9.0490713e-05
7.4934094e-05
5.3365544e-05
3.4376912e-05
2.1162176e-05
1.2804359e-05
8.4557477e-06
6.9665711e-06
7.590575e-06
1.0388137e-05
1.6123828e-05
2.4008398e-05
3.6808934e-05
5.751327e-05
8.2854456e-05
0.00010726351
0.00012467555
0.00012156122
9.2719509e-05
4.87193e-05
2.4133348e-05
2.2051877e-05
6.3518176e-05
8.0054982e-05
8.1636266e-05
8.4451836e-05
9.2185336e-05
8.321696e-05
6.0973626e-05
3.7731321e-05
2.1278909e-05
1.0987539e-05
6.1800902e-06
6.9871e-06
7.7738391e-06
7.8904069e-06
6.4736461e-06
8.0302566e-06
1.4461438e-05
2.5189442e-05
4.3734384e-05
7.1094854e-05
0.00010011518
0.00012203946
0.00012564485
0.00010303154
5.9815443e-05
2.7691597e-05
1.4098404e-05
6.3488942e-05
7.185165e-05
7.3558126e-05
8.8031655e-05
9.2340768e-05
7.6181706e-05
5.0571052e-05
2.9047978e-05
1.4739448e-05
6.9244409e-06
9.4662951e-06
9.3277444e-06
8.1286628e-06
8.2856279e-06
8.5662334e-06
7.3750761e-06
9.2131509e-06
1.8098318e-05
3.4523048e-05
6.1181004e-05
9.3562175e-05
0.00011856278
0.00012620471
0.00010844487
6.84598e-05
3.220176e-05
7.2762908e-06
3.2157295e-05
5.8411044e-05
6.3932949e-05
7.3520322e-05
9.4192798e-05
9.1886762e-05
7.1665849e-05
4.6017771e-05
2.5178275e-05
1.1007503e-05
6.4485639e-06
9.2379195e-06
9.0824817e-06
4.9795079e-06
4.6082275e-06
6.9775957e-06
7.9565496e-06
7.548874e-06
1.4473981e-05
2.9341599e-05
5.4735479e-05
8.8725922e-05
0.00011546183
0.00012481743
0.00010989944
7.2545434e-05
3.6501639e-05
1.505613e-05
4.0387067e-05
5.1758721e-05
5.986438e-05
7.884318e-05
9.9115494e-05
9.2528063e-05
7.1564883e-05
4.5731206e-05
2.3918932e-05
9.6237992e-06
6.9352807e-06
9.0151033e-06
8.0838793e-06
2.4789527e-06
4.0024443e-06
6.5802782e-06
7.8885076e-06
7.4553909e-06
1.3580534e-05
2.7509286e-05
5.2080118e-05
8.6610675e-05
0.00011324077
0.00012227075
0.00010805
7.1529881e-05
3.1129956e-05
1.6222805e-05
3.3644949e-05
4.5234804e-05
5.9020837e-05
8.4234943e-05
0.00010213428
9.5149927e-05
7.4752121e-05
4.8702383e-05
2.5638446e-05
1.0649644e-05
6.8648403e-06
8.8859903e-06
8.5503337e-06
5.7812036e-06
6.9320973e-06
7.0202046e-06
8.0464729e-06
7.9678757e-06
1.4916016e-05
2.8777249e-05
5.3284603e-05
8.727924e-05
0.00011181624
0.00011901613
0.0001036513
6.5821683e-05
3.0854468e-05
1.6187496e-05
3.2586439e-05
3.9468648e-05
5.879354e-05
8.6268095e-05
0.00010461369
9.9189087e-05
8.0427932e-05
5.5128904e-05
3.0827583e-05
1.4076385e-05
7.5604885e-06
9.2738137e-06
8.5654713e-06
8.0858519e-06
7.8416788e-06
7.9544209e-06
7.9574335e-06
1.0157402e-05
1.8272821e-05
3.2932236e-05
5.8192313e-05
9.0654741e-05
0.00011148415
0.00011512707
9.6280963e-05
5.5649147e-05
3.0811819e-05
1.2862523e-05
2.7928939e-05
3.4814038e-05
5.6449558e-05
8.525253e-05
0.00010577791
0.00010337868
8.7745237e-05
6.4736076e-05
4.0070231e-05
2.0750466e-05
1.1264917e-05
8.1561932e-06
8.29673e-06
8.0322344e-06
8.0770489e-06
8.5222975e-06
9.6698796e-06
1.4249775e-05
2.3709388e-05
4.042349e-05
6.7143062e-05
9.6567677e-05
0.00011177575
0.00010908873
8.4208519e-05
4.4640161e-05
2.483822e-05
1.6722231e-05
2.9994482e-05
5.1646552e-05
8.0884344e-05
0.00010458501
0.00010634776
9.5390851e-05
7.6756824e-05
5.3781855e-05
3.2210788e-05
1.9163112e-05
1.3089434e-05
1.0327289e-05
9.642525e-06
9.7698121e-06
1.0929471e-05
1.4129838e-05
2.0888306e-05
3.308747e-05
5.3249556e-05
8.0613603e-05
0.00010347514
0.00011143076
0.00010070808
6.7109707e-05
3.091518e-05
2.190678e-05
2.5079928e-05
4.4345454e-05
7.2493047e-05
9.9841592e-05
0.00010703482
0.00010157809
8.9022477e-05
7.0996576e-05
4.9816542e-05
3.3294491e-05
2.4020986e-05
1.9042647e-05
1.6654135e-05
1.6625576e-05
1.9039505e-05
2.4554709e-05
3.4591217e-05
5.0792322e-05
7.3275603e-05
9.5731191e-05
0.00010830515
0.00010513154
8.287029e-05
4.924823e-05
2.6918613e-05
2.0891545e-05
1.929008e-05
3.5231616e-05
5.9940833e-05
9.0129207e-05
0.00010340026
0.00010373561
9.8071606e-05
8.7983726e-05
7.2016104e-05
5.5379147e-05
4.3500013e-05
3.66458e-05
3.3549241e-05
3.3949699e-05
3.8021042e-05
4.597928e-05
5.8586501e-05
7.5410199e-05
9.3263193e-05
0.00010540863
0.00010664004
9.2709404e-05
6.3079444e-05
3.8160552e-05
1.8579888e-05
8.2172969e-06
6.6655087e-06
2.5072149e-05
4.3861042e-05
7.4530802e-05
9.4220275e-05
0.00010038528
0.00010016912
9.8568318e-05
9.1918136e-05
8.1100391e-05
7.0986549e-05
6.4204118e-05
6.1076481e-05
6.1771607e-05
6.6327252e-05
7.4429753e-05
8.534129e-05
9.7069447e-05
0.00010592234
0.00010732578
9.71276e-05
7.1177388e-05
4.4467276e-05
1.7117594e-05
9.8219486e-06
1.6397616e-05
2.7536584e-05
5.3789256e-05
7.8172309e-05
9.1111184e-05
9.4473181e-05
9.8386017e-05
0.00010096146
9.8815079e-05
9.4628734e-05
9.1041549e-05
8.941694e-05
9.005698e-05
9.3305655e-05
9.8724388e-05
0.00010473301
0.00010908051
0.00010839045
9.8339797e-05
7.5508947e-05
4.9861354e-05
2.7459186e-05
2.1402884e-05
1.2063287e-05
3.0920775e-05
5.4936189e-05
7.493843e-05
8.1913204e-05
8.7549443e-05
9.5914681e-05
0.00010155668
0.00010452287
0.00010592568
0.0001072651
0.00010894067
0.00011081477
0.0001124951
0.0001125347
0.0001083629
9.6609167e-05
7.5017752e-05
5.0611967e-05
2.8785261e-05
2.0020223e-05
1.0149698e-05
1.3033359e-05
3.0489232e-05
4.8908802e-05
6.6066034e-05
7.0110224e-05
7.7604344e-05
8.7606338e-05
9.554362e-05
0.00010131406
0.00010492431
0.00010692421
0.00010706654
0.00010432818
9.7349201e-05
8.4442311e-05
6.5544792e-05
4.5021747e-05
2.720956e-05
1.9325071e-05
1.0482875e-05
1.161579e-05
2.021611e-05
4.3821892e-05
5.2370813e-05
5.6675288e-05
6.2539071e-05
7.1006492e-05
7.8714635e-05
8.3559914e-05
8.4777091e-05
8.2688301e-05
7.6680796e-05
6.664921e-05
5.3444236e-05
3.9899149e-05
2.7631193e-05
1.5814228e-05
9.5254379e-06
1.1211249e-05
2.1916466e-05
3.14694e-05
3.4188919e-05
4.2744442e-05
4.5661434e-05
4.747107e-05
5.0771688e-05
5.1537858e-05
4.8976265e-05
4.2703186e-05
3.5641965e-05
2.8553024e-05
2.1819888e-05
1.3525473e-05
1.5537015e-05
1.1627291e-05
2.5696681e-05
2.6934482e-05
3.1605774e-05
3.025743e-05
2.925826e-05
2.737232e-05
2.4747926e-05
2.2944058e-05
1.8539419e-05
6.6230018e-06
8.8711687e-06
1.7058527e-05
1.7136487e-05
1.6015959e-05
1.1846267e-05
9.6952865e-06
2.2717291e-05
3.4821362e-05
3.7645551e-05
3.982204e-05
3.9978365e-05
3.6611966e-05
2.7544443e-05
1.8052475e-05
1.8431155e-05
3.0536362e-05
3.7776479e-05
4.4926086e-05
5.2383779e-05
5.9857867e-05
6.7421163e-05
7.501879e-05
8.0143434e-05
7.8964722e-05
6.2908886e-05
5.0916395e-05
1.4341326e-05
9.8932174e-06
7.8088023e-06
2.6825671e-05
3.9194621e-05
4.93422e-05
5.8434097e-05
6.5978009e-05
7.1319285e-05
7.4384687e-05
7.6580724e-05
7.9905773e-05
8.6195248e-05
9.5170573e-05
0.00010027357
9.5390913e-05
7.679411e-05
3.1172498e-05
2.0805531e-05
1.0245893e-05
2.7960874e-05
4.6841022e-05
6.8504824e-05
8.8423002e-05
0.00010425524
0.00011493265
0.00012011089
0.00011978707
0.00011512131
0.00010806533
0.00010188307
0.00010095959
0.00010795948
0.00011496844
0.00011772734
8.3934499e-05
4.6780302e-05
1.5046114e-05
1.084381e-05
3.6533744e-05
7.1203845e-05
0.00010476313
0.00013096922
0.00014912944
0.00016033234
0.00016565206
0.00016621547
0.00016286844
0.00015593152
0.00014619007
0.0001348694
0.00012375473
0.00011810419
0.00012062692
0.00013089502
0.00012663412
9.7592067e-05
4.8194075e-05
1.4088925e-05
8.9395173e-06
4.1192976e-05
8.4921549e-05
0.00012485596
0.00015155686
0.00016679858
0.00017381911
0.00017472344
0.00017125247
0.00016570859
0.00016010409
0.00015521129
0.00015026168
0.00014485117
0.00013844602
0.00013185028
0.00012843277
0.00013404968
0.00014285055
0.00013495814
9.6594356e-05
4.2244865e-05
1.240388e-05
2.9496292e-05
7.99106e-05
0.00012875908
0.00015563227
0.00016615328
0.00016744716
0.00016244117
0.00015212607
0.00013911842
0.00012735289
0.00011898946
0.0001161084
0.00011740194
0.00012054722
0.00012461712
0.00012796705
0.0001302801
0.00013534928
0.00014655115
0.00015233699
0.00013401416
8.1564854e-05
3.6743994e-05
1.1223914e-05
1.9635909e-05
7.4438249e-05
0.00012486117
0.00014913952
0.00015468792
0.00015308021
0.00014646141
0.00013338719
0.00011485978
9.6172732e-05
8.0910908e-05
7.0930416e-05
6.6786367e-05
6.9305453e-05
7.7405705e-05
8.9171811e-05
0.00010255655
0.00011594725
0.00012887874
0.0001443505
0.00015820292
0.00015505769
0.00011684448
6.164362e-05
2.165693e-05
4.9597201e-05
0.00010359996
0.00013384985
0.00013968193
0.00013796904
0.00013516978
0.0001256238
0.0001053197
8.111488e-05
5.9786779e-05
4.405659e-05
3.4426455e-05
3.0284261e-05
3.2094407e-05
4.0089742e-05
5.320836e-05
7.043901e-05
9.0553253e-05
0.00011208419
0.00013471871
0.00015721899
0.00016521812
0.00014071137
8.6710377e-05
3.685935e-05
1.4873199e-05
9.7568517e-06
6.4096099e-05
0.00011358178
0.00012612671
0.00012452967
0.000126828
0.00012652164
0.0001095547
8.1484284e-05
5.4282617e-05
3.3711581e-05
2.0476956e-05
1.349232e-05
1.0945372e-05
1.1494991e-05
1.5998155e-05
2.7072094e-05
4.3673915e-05
6.5332817e-05
9.1277972e-05
0.00012066281
0.00015073649
0.00016894849
0.00015517948
0.00010725905
4.8243719e-05
2.5635832e-05
2.1915426e-05
8.464349e-05
0.00011089405
0.00011107901
0.00011549365
0.00012547287
0.00012174436
9.4784442e-05
6.166776e-05
3.5164667e-05
1.81173e-05
1.0293782e-05
9.5020771e-06
9.4768229e-06
9.6153876e-06
8.5337013e-06
1.2305997e-05
2.5522511e-05
4.5729089e-05
7.2747909e-05
0.00010585031
0.0001420685
0.00016848889
0.00016305211
0.000121579
5.9625696e-05
2.824501e-05
1.6021182e-05
8.8235541e-05
0.00010034581
0.00010041256
0.00011719388
0.00013114101
0.00011611202
8.1977133e-05
4.7891865e-05
2.3751535e-05
1.1428874e-05
1.1183268e-05
9.8334765e-06
8.1463815e-06
8.371715e-06
9.1621323e-06
8.8599915e-06
1.5297208e-05
3.2851883e-05
5.9014206e-05
9.4034444e-05
0.00013413065
0.00016633707
0.00016644461
0.00013000135
7.0301149e-05
3.1326605e-05
7.5254805e-06
4.0233794e-05
8.4287892e-05
8.925409e-05
9.6758098e-05
0.00012493328
0.00013424257
0.00011137858
7.3950949e-05
4.0148912e-05
1.7975187e-05
1.0474827e-05
1.0542989e-05
9.5674082e-06
5.0928497e-06
4.7085228e-06
7.3208722e-06
8.9306037e-06
1.1546229e-05
2.6112714e-05
5.0850117e-05
8.6725096e-05
0.00012913458
0.00016441594
0.00016669232
0.00013275814
7.5674037e-05
3.5356069e-05
1.5191551e-05
5.3017018e-05
7.6181222e-05
8.0025156e-05
9.8226577e-05
0.00013258802
0.00013601378
0.00010942695
7.1190904e-05
3.756108e-05
1.6819583e-05
1.0926533e-05
1.0043078e-05
8.3870719e-06
2.4868666e-06
4.6741996e-06
6.8350924e-06
8.9788365e-06
1.1163069e-05
2.4420608e-05
4.8074966e-05
8.4738955e-05
0.0001286511
0.00016342712
0.00016418882
0.00013068454
7.5425477e-05
2.9806509e-05
1.6525495e-05
4.0277144e-05
6.6705301e-05
7.322768e-05
0.00010079626
0.00013707256
0.00013836062
0.00011116614
7.3808326e-05
4.0292355e-05
1.90595e-05
1.2146339e-05
1.0239534e-05
8.8055136e-06
5.989274e-06
7.4859409e-06
7.0729959e-06
9.872248e-06
1.3013023e-05
2.6827658e-05
5.0771673e-05
8.864643e-05
0.00013234466
0.00016284275
0.00015905281
0.00012404434
6.8721853e-05
3.0847913e-05
1.7104652e-05
3.8298206e-05
5.6716278e-05
6.8299842e-05
0.00010120159
0.00013883855
0.00014113396
0.00011677566
8.1793609e-05
4.8255381e-05
2.4815257e-05
1.482108e-05
1.2298852e-05
1.0416692e-05
8.5003646e-06
8.2732929e-06
9.5012801e-06
1.155411e-05
1.7962992e-05
3.3377708e-05
5.916334e-05
9.8167489e-05
0.0001383667
0.00016113559
0.00015057748
0.00011247668
5.8326109e-05
3.1839276e-05
1.5434398e-05
2.9597166e-05
4.762592e-05
6.2881883e-05
9.7858656e-05
0.00013745181
0.00014383854
0.00012508126
9.435343e-05
6.1852365e-05
3.5690192e-05
2.1257506e-05
1.5450348e-05
1.3472955e-05
1.2121951e-05
1.1822697e-05
1.2870503e-05
1.7301069e-05
2.6871729e-05
4.4735227e-05
7.3403892e-05
0.00011183765
0.00014474494
0.00015705862
0.00013916625
9.7999666e-05
4.8407968e-05
2.4174549e-05
1.8892169e-05
3.9417618e-05
5.6162851e-05
9.0483648e-05
0.00013284592
0.00014432171
0.000133993
0.00011004109
8.1106995e-05
5.3540626e-05
3.4507752e-05
2.4185119e-05
1.9453379e-05
1.7999217e-05
1.8298382e-05
2.1032741e-05
2.7935642e-05
4.0813922e-05
6.2261655e-05
9.3004389e-05
0.00012674934
0.00014953733
0.00014941004
0.00012374524
7.7169393e-05
3.4685459e-05
2.4353537e-05
3.1643267e-05
4.811965e-05
7.9150989e-05
0.0001244041
0.00014253937
0.00013994822
0.00012540966
0.00010403713
7.8882336e-05
5.7055932e-05
4.2436546e-05
3.4087097e-05
3.0679822e-05
3.1463668e-05
3.6354778e-05
4.638379e-05
6.3057676e-05
8.7026676e-05
0.0001153674
0.00013964611
0.00014895407
0.0001372609
0.00010425812
6.05158e-05
3.1721077e-05
2.2249194e-05
2.5609907e-05
3.8792477e-05
6.4114717e-05
0.00011084512
0.00013500381
0.00013957416
0.00013493342
0.00012487099
0.00010807881
8.8620141e-05
7.2357988e-05
6.1716626e-05
5.6821907e-05
5.7628613e-05
6.4060298e-05
7.5952268e-05
9.3433447e-05
0.00011463746
0.00013448099
0.00014539574
0.00014159243
0.00012120442
8.531513e-05
4.7264784e-05
2.1779129e-05
9.2653129e-06
8.7205577e-06
2.7148121e-05
4.6189763e-05
9.1141244e-05
0.00012214056
0.00013326189
0.00013367034
0.00013479384
0.00013083764
0.00012096766
0.00010911739
9.9776459e-05
9.4828556e-05
9.49147e-05
0.00010041537
0.00011053134
0.00012377201
0.00013697913
0.00014538383
0.00014422053
0.00013025544
9.9786323e-05
5.5339239e-05
1.9667666e-05
1.1734636e-05
1.766852e-05
2.8199917e-05
6.4330689e-05
0.00010143311
0.00012093696
0.00012568568
0.0001296973
0.00013627546
0.00013866418
0.00013698017
0.00013342704
0.0001310141
0.00013105938
0.00013391608
0.00013940608
0.00014548199
0.0001491389
0.0001467632
0.00013446731
0.00010933896
6.9564361e-05
3.1544605e-05
2.2938299e-05
1.2242674e-05
3.4587206e-05
7.0232353e-05
9.8686871e-05
0.00011183222
0.00011440831
0.00012316351
0.00013308025
0.00014158929
0.00014704727
0.00014993429
0.00015151221
0.00015242691
0.00015277435
0.00015120558
0.00014536473
0.00013195357
0.00010754532
7.1060225e-05
3.3996078e-05
2.1132238e-05
1.0763405e-05
1.2940434e-05
3.5420997e-05
6.1824642e-05
9.0342395e-05
9.4557279e-05
0.00010031127
0.00010806043
0.00011858417
0.0001288875
0.00013606042
0.00013969647
0.00013989826
0.00013643704
0.00012845222
0.00011414143
9.1582223e-05
6.1315554e-05
3.2141289e-05
2.1354471e-05
1.0791312e-05
1.2225085e-05
2.4338319e-05
5.5837424e-05
6.9023731e-05
7.3766117e-05
7.9320272e-05
8.3641466e-05
9.1149175e-05
9.8626864e-05
0.00010235659
0.00010122878
9.4994386e-05
8.3858993e-05
6.7939491e-05
4.9191507e-05
3.1335582e-05
1.6560255e-05
1.0065557e-05
1.1628024e-05
2.5454262e-05
3.8363512e-05
4.2479678e-05
5.2673646e-05
5.4955169e-05
5.4084378e-05
5.574156e-05
5.6219017e-05
5.4028322e-05
4.7816552e-05
4.0514854e-05
3.2053256e-05
2.591366e-05
1.4582187e-05
1.6889942e-05
1.3009881e-05
2.9833327e-05
3.312728e-05
3.8268438e-05
3.6898869e-05
3.531428e-05
3.2623786e-05
2.8535482e-05
2.5959272e-05
1.9400059e-05
7.46163e-06
9.8197065e-06
1.888512e-05
1.9197849e-05
1.7902853e-05
1.4149348e-05
1.1476516e-05
2.6001108e-05
4.0557542e-05
4.6096894e-05
4.8771846e-05
4.8430418e-05
4.2492603e-05
2.8556785e-05
1.8593301e-05
2.4184168e-05
4.3001914e-05
5.4674936e-05
6.628229e-05
7.8055798e-05
8.9212008e-05
9.903074e-05
0.00010688182
0.00010876262
0.00010259644
7.939531e-05
6.0001977e-05
1.634451e-05
1.0147337e-05
1.0169109e-05
3.2405925e-05
4.5752145e-05
5.7389652e-05
6.835275e-05
7.8281844e-05
8.6787866e-05
9.3948387e-05
0.00010124306
0.00010993659
0.00011992976
0.00012960131
0.00013245679
0.00012197757
9.3258285e-05
3.6938667e-05
2.1201914e-05
1.1845881e-05
2.5808288e-05
4.1791366e-05
6.1875854e-05
8.2801756e-05
0.00010149207
0.00011585708
0.00012463906
0.00012761146
0.00012637258
0.00012372471
0.0001236307
0.00012934231
0.0001411526
0.00014933879
0.00014700256
0.00010115256
5.4285271e-05
1.5031546e-05
1.1167982e-05
3.2985461e-05
6.2584073e-05
9.7984202e-05
0.00013138195
0.00015754198
0.00017529477
0.000185414
0.00018930551
0.00018778114
0.00018117794
0.00017073316
0.00015833537
0.00014788586
0.00014598273
0.00015347362
0.00016537714
0.00015446269
0.0001139247
5.2113516e-05
1.4098405e-05
9.0650217e-06
4.1016319e-05
8.3511718e-05
0.00012946368
0.00016593694
0.00018950302
0.00020209832
0.00020652213
0.00020528524
0.00020108125
0.00019645584
0.00019228298
0.00018742235
0.00018055034
0.00017125481
0.00016217712
0.00015944314
0.00016838123
0.00017653074
0.00015992553
0.00010795715
4.3483438e-05
1.2204447e-05
3.1456761e-05
8.6861172e-05
0.0001445939
0.00018132912
0.00019814618
0.00020243277
0.00019872761
0.00018884747
0.00017544757
0.00016256451
0.00015351978
0.00015082294
0.00015407311
0.00016022603
0.00016428538
0.00016522363
0.00016470693
0.00016964723
0.00018212241
0.00018333751
0.00015257115
8.6482825e-05
3.4885044e-05
1.1151517e-05
2.0066045e-05
8.5186016e-05
0.00014786351
0.00018175883
0.00019107908
0.00018918928
0.00018207647
0.00016802957
0.00014742827
0.00012541748
0.00010699018
9.4960404e-05
9.0730176e-05
9.5351915e-05
0.00010781927
0.00012487189
0.00014173448
0.00015441633
0.00016553371
0.00018099575
0.00019252529
0.00017940008
0.00012595148
6.0015944e-05
2.0074054e-05
5.6978844e-05
0.00012610198
0.00016726214
0.0001764303
0.00017289019
0.00016871371
0.00015854257
0.00013624776
0.00010798817
8.1665111e-05
6.1690384e-05
4.9236487e-05
4.3887854e-05
4.6445706e-05
5.8049728e-05
7.8143495e-05
0.00010250317
0.00012741817
0.00015006953
0.00017359639
0.00019372851
0.00019365544
0.00015369877
8.5969045e-05
3.3672939e-05
1.4831796e-05
9.9401363e-06
7.8953435e-05
0.00014373038
0.00016274071
0.00015861886
0.00015782013
0.00015770608
0.0001410675
0.00010945001
7.6007475e-05
4.9204183e-05
3.1750488e-05
2.2221474e-05
1.8417432e-05
1.870385e-05
2.511225e-05
4.1442744e-05
6.651979e-05
9.6498496e-05
0.00012743769
0.00015973731
0.00018949754
0.00020014692
0.00017141601
0.00010759583
4.4661652e-05
2.466915e-05
2.249933e-05
0.00010660067
0.00014597698
0.00014628787
0.00014429346
0.00015500595
0.00015307485
0.00012510223
8.5736868e-05
5.125288e-05
2.8205417e-05
1.7220551e-05
1.3965783e-05
1.2450072e-05
1.231538e-05
1.2464211e-05
1.9625091e-05
4.0363974e-05
7.0358538e-05
0.00010508074
0.00014361568
0.00018182011
0.00020182758
0.00018179189
0.00012318695
5.5136413e-05
2.7040352e-05
1.7965948e-05
0.00011605878
0.00013697726
0.00013061256
0.00014169104
0.00015934555
0.00014798384
0.00010979074
6.7429015e-05
3.5550005e-05
1.8978142e-05