/*--------------------------------*- C++ -*----------------------------------*\
| =========                 |                                                 |
| \\      /  F ield         | OpenFOAM: The Open Source CFD Toolbox           |
|  \\    /   O peration     | Version:  2406                                  |
|   \\  /    A nd           | Website:  www.openfoam.com                      |
|    \\/     M anipulation  |                                                 |
\*---------------------------------------------------------------------------*/
FoamFile
{
    version     2.0;
    format      ascii;
    arch        "LSB;label=32;scalar=64";
    class       volScalarField;
    location    "800";
    object      p;
}
// * * * * * * * * * * * * * * * * * * * * * * * * * * * * * * * * * * * * * //

dimensions      [0 2 -2 0 0 0 0];

internalField   nonuniform List<scalar> 
150387
(
0.0032327725
0.0039645931
0.0028110358
0.0025382612
0.0024967365
0.0027059573
0.0041163652
0.0043267172
0.0051197994
0.0033235026
0.0019659081
0.00035625775
-0.00087518912
-0.0018819704
-0.0023319033
-0.00228917
-0.0017609968
-0.00063588831
0.00073048795
0.0018289857
0.0028828735
0.0043263487
0.0021505354
-0.00043023138
-0.0026775116
-0.0046853212
-0.0062647042
-0.0073251177
-0.0077288994
-0.0075447784
-0.0068187065
-0.0055757625
-0.0039697921
-0.0020855858
-0.00022497031
0.0018418695
0.0039803175
0.0046997868
0.0035458203
0.00094761933
-0.0020867871
-0.0050215459
-0.0076626605
-0.0099546514
-0.011818937
-0.013082161
-0.013666843
-0.013566995
-0.012787376
-0.011351679
-0.0093806841
-0.0069981547
-0.0044139702
-0.0017607146
0.00053713306
0.0026260056
0.0056039326
0.0038851575
0.00074750324
-0.0027281621
-0.0063366182
-0.0097542814
-0.012854826
-0.015524079
-0.017660709
-0.019169332
-0.019931443
-0.019929325
-0.019164077
-0.017610814
-0.015356257
-0.012541737
-0.0094117451
-0.0061638025
-0.0030338363
-0.0002457878
0.0021465738
0.0041803892
0.0011246737
-0.0027109585
-0.0067965921
-0.010922189
-0.014888927
-0.018546135
-0.021744627
-0.024306879
-0.026136318
-0.027076415
-0.027065777
-0.026207607
-0.024497879
-0.021938732
-0.018653614
-0.014924697
-0.010996038
-0.0071697692
-0.0035196904
-0.00042750465
0.0026240771
0.0050404832
0.002034949
-0.0018882629
-0.006317458
-0.011004212
-0.015759913
-0.020415043
-0.02480041
-0.028724189
-0.03196148
-0.034248078
-0.035439616
-0.035319185
-0.034107758
-0.031997165
-0.029025951
-0.025216718
-0.020818707
-0.016167815
-0.011585692
-0.0072295282
-0.0033166641
0.00030865446
0.0024627325
0.0065305942
0.0032229057
-0.00049704612
-0.0050398551
-0.010070132
-0.015394575
-0.020860319
-0.026314683
-0.031588592
-0.036484656
-0.040716273
-0.04387594
-0.045513894
-0.045351576
-0.043538522
-0.040571323
-0.036748084
-0.032171171
-0.026977217
-0.021495005
-0.016117623
-0.011030539
-0.0064659268
-0.0023443645
0.0007715642
0.00441162
0.0012319435
-0.0031260243
-0.0082154262
-0.013831608
-0.019796687
-0.026000763
-0.032305883
-0.038618497
-0.044803218
-0.050418539
-0.054781388
-0.057243186
-0.057358044
-0.054922656
-0.050750897
-0.045466908
-0.039563426
-0.033272191
-0.026805289
-0.020545008
-0.01470265
-0.0094694787
-0.0047556573
-0.00086513053
0.0026387513
0.003125908
-0.00083490912
-0.0057323722
-0.011305963
-0.017436339
-0.023973776
-0.030844294
-0.037986932
-0.045523395
-0.053324767
-0.060426962
-0.065701302
-0.068643917
-0.06925609
-0.066908921
-0.061970318
-0.05515192
-0.047434588
-0.039577617
-0.031902325
-0.024669327
-0.018055771
-0.012174603
-0.0069536118
-0.0024506656
0.0011128043
0.0055534957
0.0017397255
-0.0027276495
-0.0081136185
-0.014080513
-0.020607285
-0.027580305
-0.034980881
-0.042992272
-0.051998907
-0.061437366
-0.069239378
-0.074336187
-0.076958408
-0.077475981
-0.075648414
-0.071155484
-0.064050041
-0.055049503
-0.045547949
-0.036492739
-0.028254469
-0.020908799
-0.014456753
-0.0088276197
-0.0039531021
-0.00029118242
0.0041967629
0.00031653793
-0.0044261343
-0.010147537
-0.016352988
-0.023105064
-0.030327749
-0.038178753
-0.047160356
-0.057670687
-0.068011806
-0.075361261
-0.07980601
-0.082099762
-0.082393818
-0.080646714
-0.076678392
-0.07016004
-0.061025409
-0.050455576
-0.040172186
-0.031016033
-0.023057301
-0.01616291
-0.010222204
-0.0050728101
-0.00096233551
0.0019232866
0.003503484
-0.00072867059
-0.0057652783
-0.011659901
-0.017935263
-0.024749407
-0.032095469
-0.040406698
-0.050302923
-0.061831562
-0.072053431
-0.078632243
-0.082727343
-0.085060179
-0.085164279
-0.083267821
-0.079477439
-0.073424261
-0.064585387
-0.053588978
-0.042458752
-0.032652832
-0.024309814
-0.017175317
-0.011051923
-0.0058138117
-0.0015568036
0.0018270999
0.0030538244
-0.0011328676
-0.0065807203
-0.012512946
-0.018725783
-0.025485089
-0.032931915
-0.041618684
-0.052048153
-0.063749883
-0.073293555
-0.07965219
-0.08439848
-0.086627162
-0.085576179
-0.083781704
-0.08004981
-0.074215307
-0.065610134
-0.054481172
-0.042969414
-0.033045058
-0.024700267
-0.0175524
-0.011380429
-0.0059725833
-0.0017331729
0.0013276462
0.0030988684
-0.0013136387
-0.0067902372
-0.012678789
-0.018702066
-0.025353142
-0.032802976
-0.041510199
-0.051765865
-0.062833797
-0.071994978
-0.078237293
-0.082670462
-0.086593644
-0.084304613
-0.08260171
-0.078976878
-0.073251049
-0.064512015
-0.053216199
-0.042018568
-0.032446456
-0.024335118
-0.017329845
-0.011205905
-0.0059454132
-0.0015538268
0.0014899036
0.0038332466
-0.00083999229
-0.0063821754
-0.012118034
-0.017919782
-0.024389766
-0.031596711
-0.039879856
-0.049426297
-0.059670758
-0.068720549
-0.075110882
-0.079052919
-0.080961309
-0.08109675
-0.079636251
-0.076136094
-0.070379096
-0.061504679
-0.050438966
-0.039899526
-0.030929351
-0.023233701
-0.016487448
-0.010489533
-0.0053366213
-0.0011233217
0.0018538375
0.0047655516
-3.5802101e-05
-0.0053541889
-0.010869533
-0.01642178
-0.022572058
-0.029393652
-0.037024062
-0.045468376
-0.05456815
-0.063254288
-0.069945168
-0.074096735
-0.076062975
-0.076309791
-0.074883758
-0.071337941
-0.065289291
-0.056439467
-0.046203013
-0.03676353
-0.028639841
-0.02147997
-0.015072126
-0.0092955102
-0.0043134049
-0.00079033356
0.0018426096
0.0050311762
0.0011193852
-0.0037379571
-0.0089453128
-0.014256095
-0.02004436
-0.026363936
-0.033194499
-0.040437411
-0.04805606
-0.055689843
-0.062323467
-0.066882239
-0.069158922
-0.069494225
-0.068000343
-0.064250545
-0.05807729
-0.049829899
-0.041027034
-0.032957124
-0.025750817
-0.019159264
-0.013134936
-0.0076768015
-0.0029431125
0.00033971286
0.0024112145
-0.0017503334
-0.0066099452
-0.011575927
-0.01693293
-0.022657102
-0.028707255
-0.034870276
-0.041014807
-0.047056257
-0.052615382
-0.056968971
-0.059512386
-0.060233698
-0.058788685
-0.055138022
-0.049515927
-0.042620953
-0.035490401
-0.028718941
-0.022332144
-0.016305252
-0.010715218
-0.0056849293
-0.0013226549
0.0015917218
0.0037943245
0.00048774137
-0.0039439304
-0.0084662364
-0.013346109
-0.018466029
-0.023801378
-0.0291008
-0.034135738
-0.038786666
-0.042945299
-0.046296498
-0.048443555
-0.049186792
-0.048235046
-0.045325037
-0.040902777
-0.035559565
-0.029866285
-0.024117991
-0.018464799
-0.013030929
-0.0079496115
-0.0035367522
0.00018704147
0.0033409099
0.0029442727
-0.0010119629
-0.005046145
-0.009430919
-0.013981357
-0.018652106
-0.023247784
-0.027527912
-0.03128661
-0.034457587
-0.036927489
-0.038505139
-0.038998129
-0.03832031
-0.036246925
-0.032957903
-0.028810303
-0.024157394
-0.019253941
-0.014311597
-0.00951319
-0.0050248099
-0.0010174839
0.0015635509
0.0046573739
0.0016009833
-0.0015946026
-0.0054204927
-0.0093829618
-0.013456525
-0.017428696
-0.021129268
-0.024328924
-0.026915891
-0.028834951
-0.030010513
-0.030321497
-0.029733028
-0.028203561
-0.025677203
-0.022370775
-0.018526777
-0.014372152
-0.010126008
-0.0059827583
-0.0023057877
0.00092965237
0.0018075382
0.0041044543
0.0014931125
-0.001538297
-0.0049176006
-0.008393927
-0.011810176
-0.015003407
-0.017772938
-0.019988197
-0.021580144
-0.022512056
-0.022736624
-0.022213885
-0.021005253
-0.01899519
-0.016314693
-0.013136846
-0.0096285059
-0.0060571763
-0.0027442298
0.00037003419
0.0031356269
0.0039203875
0.0016179936
-0.00084855856
-0.0036937757
-0.0065767053
-0.0093174988
-0.011722093
-0.013666564
-0.015042936
-0.015826373
-0.015997751
-0.015555257
-0.014569032
-0.012964248
-0.010804312
-0.0082149256
-0.0053007282
-0.0025586439
0.00020951275
0.0023119457
0.0041451102
0.0026290054
0.00027726578
-0.0019406699
-0.0042065772
-0.0062102656
-0.0078919541
-0.0091152182
-0.0098352006
-0.010033479
-0.0097015045
-0.0089227503
-0.007604737
-0.0058592503
-0.0038192545
-0.0013449774
0.00062099637
0.0031303254
0.0046538812
0.0032613726
0.0018851499
7.7142967e-05
-0.0016303604
-0.0030577401
-0.0040657306
-0.004674892
-0.00485838
-0.0045737338
-0.0039687295
-0.0029098807
-0.0016579189
-0.00025717567
0.0013958153
0.0016076462
0.0047604427
0.0030302524
0.0016963192
0.00090587256
0.00018154044
-0.00038500189
-0.00059569235
-0.00040061636
-0.00013358017
0.00069619747
0.0014344078
0.0027834937
0.0038426322
0.0033174758
0.0029229494
0.0026825027
0.0035265236
0.0023772509
0.0045406625
0.0045244701
0.0042945496
0.0024929723
0.0022000995
0.002133653
0.0022740995
0.0041463012
0.0045768269
0.0050191621
0.002057431
0.00079944728
-0.00076817769
-0.0019595908
-0.003028078
-0.0033353086
-0.0031511708
-0.0024992555
-0.0011907188
0.00022464453
0.0013512952
0.0030348475
0.0050931886
0.0048000222
0.0040721469
0.00073039105
-0.001745818
-0.0039845114
-0.0059558103
-0.0074030069
-0.0083168087
-0.0085894489
-0.0082847445
-0.0074530417
-0.0061098226
-0.0045154207
-0.0024878594
-0.00089039169
0.001732517
0.0042219669
0.0051714483
0.0022613286
-0.00032627861
-0.0037215964
-0.0066329698
-0.0091878053
-0.011359095
-0.013017488
-0.014171357
-0.014664006
-0.014463308
-0.013583714
-0.012011111
-0.009935111
-0.0074461223
-0.0047373314
-0.0019783076
5.1819109e-05
0.0029183866
0.0054900718
0.0026178778
-0.0003089729
-0.0041868379
-0.0079354062
-0.011380777
-0.014464392
-0.017078053
-0.019084245
-0.020427926
-0.0210633
-0.020898958
-0.019986648
-0.018288482
-0.015899968
-0.01295167
-0.0097682808
-0.0064507568
-0.0030626993
-0.00041896233
0.002641317
0.0059547169
0.0027447127
4.418882e-05
-0.0043193088
-0.0085317136
-0.012759659
-0.016771774
-0.020442421
-0.02362942
-0.026137804
-0.027788325
-0.028553487
-0.028315721
-0.02722343
-0.02528676
-0.022536868
-0.019065913
-0.015197384
-0.011176639
-0.0073343266
-0.0033854422
-0.00063371068
0.0025342041
0.0046477869
0.00099536304
-0.0033704991
-0.0079880223
-0.012819458
-0.017698913
-0.022452058
-0.026954441
-0.030997175
-0.034278685
-0.036483262
-0.037379868
-0.036955323
-0.035426786
-0.032971748
-0.029684405
-0.025624627
-0.021046089
-0.016247326
-0.011646206
-0.0071938625
-0.0032260167
0.0006882755
0.0018894007
0.0064321201
0.0017122427
-0.0018604318
-0.0067148963
-0.011886092
-0.017351762
-0.022960728
-0.028588157
-0.03411901
-0.039290584
-0.043654756
-0.046749974
-0.048000468
-0.047389638
-0.04519062
-0.041812622
-0.037551877
-0.032589754
-0.027143942
-0.021482308
-0.016054285
-0.010912636
-0.0064475999
-0.0021933125
0.00038451369
0.0035516289
8.1683755e-05
-0.004627746
-0.0098903968
-0.015657146
-0.02178208
-0.028177982
-0.034777695
-0.041532214
-0.048094913
-0.053767237
-0.057856053
-0.05975881
-0.059245377
-0.056437364
-0.051936935
-0.046280811
-0.03997188
-0.033356163
-0.026674129
-0.020344646
-0.01443135
-0.0093124696
-0.004399761
-0.00087455618
0.0022328819
0.0063665275
0.0021619895
-0.0021482549
-0.0072980535
-0.012962802
-0.01925063
-0.025956001
-0.033078666
-0.040684242
-0.048810432
-0.056842411
-0.063599392
-0.068256136
-0.07046237
-0.070254029
-0.067509297
-0.062384448
-0.055443107
-0.047563858
-0.039494378
-0.031613677
-0.024309621
-0.017637328
-0.011839958
-0.0065217813
-0.0019334633
0.0015549421
0.0051759521
0.00058922651
-0.003992865
-0.0096145226
-0.01563933
-0.022325861
-0.029469788
-0.037254321
-0.045915714
-0.055448563
-0.06460291
-0.071663258
-0.076106947
-0.078118688
-0.077961522
-0.07566548
-0.070844824
-0.063540989
-0.054537859
-0.045081477
-0.035970745
-0.027706449
-0.020342097
-0.01397367
-0.0083493197
-0.0032956449
-0.00050226605
0.0037421275
-0.00093472985
-0.0056568391
-0.01154351
-0.017787329
-0.024680676
-0.032125108
-0.040538077
-0.050223296
-0.06087941
-0.070380088
-0.07715376
-0.081279642
-0.083080757
-0.082782248
-0.080692878
-0.076175781
-0.069191168
-0.059873866
-0.049472382
-0.039338226
-0.030263446
-0.022347193
-0.015549539
-0.0096683357
-0.0043291353
-0.0011677686
0.0025921091
0.0031763177
-0.0021177453
-0.006945402
-0.012895462
-0.019200795
-0.026148394
-0.033834398
-0.042794693
-0.053237525
-0.064409404
-0.073570834
-0.079809854
-0.082759063
-0.084933108
-0.0851687
-0.083204327
-0.078860623
-0.072218572
-0.063029717
-0.052149128
-0.041326986
-0.03173132
-0.023498103
-0.016502124
-0.010459318
-0.0052998735
-0.00178755
0.002367621
0.0015480014
-0.0020384198
-0.0076848474
-0.013556435
-0.019807897
-0.026745087
-0.034606905
-0.043896766
-0.054624702
-0.065504674
-0.074228502
-0.080368656
-0.084691576
-0.08673123
-0.085537507
-0.083434794
-0.079304723
-0.07278857
-0.06374731
-0.052667232
-0.041670966
-0.032019184
-0.02376596
-0.016729783
-0.010694652
-0.0050905997
-0.0015246286
0.0018712705
0.0026932103
-0.0024493764
-0.0077081662
-0.013544089
-0.019622692
-0.026449629
-0.034258437
-0.043427405
-0.053850372
-0.064161836
-0.072633868
-0.078481376
-0.082984064
-0.08669448
-0.08449832
-0.081978201
-0.077904603
-0.071368973
-0.062212059
-0.051154033
-0.040496768
-0.031196699
-0.023207311
-0.016362803
-0.01032734
-0.0053680585
-0.0017384731
0.0021803727
0.0033727707
-0.001654229
-0.0071574819
-0.012780265
-0.018674037
-0.025301497
-0.032820856
-0.041455205
-0.051013971
-0.060709359
-0.069131766
-0.075272899
-0.078986844
-0.080676121
-0.080398976
-0.078593679
-0.074457179
-0.067844069
-0.058618836
-0.048090908
-0.038165736
-0.029494586
-0.021937425
-0.015374822
-0.009411499
-0.0045454181
-0.0012743851
0.0027479245
0.0043521598
-0.00077873352
-0.0060392286
-0.011420252
-0.017045117
-0.02334607
-0.030335882
-0.038159115
-0.046621429
-0.055338582
-0.063387509
-0.06965551
-0.073631489
-0.075420317
-0.075208531
-0.073205678
-0.068924766
-0.062213681
-0.053329859
-0.043805588
-0.034935474
-0.027079179
-0.020064668
-0.01383527
-0.008123628
-0.0032684725
-0.00067524238
0.0049675321
0.00051636901
-0.0043347468
-0.0095257708
-0.014794287
-0.020666771
-0.027007865
-0.033925801
-0.041174341
-0.048587479
-0.055689036
-0.061718834
-0.065901473
-0.067947979
-0.067827693
-0.065707557
-0.061324734
-0.054862486
-0.046956846
-0.038785548
-0.031116916
-0.024114062
-0.017669398
-0.011822818
-0.0065363118
-0.0018403396
7.0360942e-05
0.0015783122
-0.0023070137
-0.0072059625
-0.012009882
-0.01739581
-0.023055915
-0.029102669
-0.035224799
-0.041290243
-0.047062165
-0.052152802
-0.056023649
-0.05824194
-0.058338051
-0.056338428
-0.052332217
-0.046742098
-0.040190761
-0.033430583
-0.026882735
-0.020655721
-0.014775485
-0.0093720532
-0.004516029
-0.00064133353
0.0020748514
0.0042197634
-5.5786692e-05
-0.0045001725
-0.0088039071
-0.013671372
-0.018683504
-0.02395893
-0.029155182
-0.034123883
-0.038675119
-0.042642053
-0.045700757
-0.047571371
-0.047848107
-0.046340946
-0.043149362
-0.038718203
-0.033501772
-0.027952597
-0.022339914
-0.016814
-0.011547575
-0.0065897787
-0.0027268721
-6.7644652e-05
0.0032883442
0.0049026154
0.0029828789
-0.0013272967
-0.0052540158
-0.0096563343
-0.014046587
-0.01865519
-0.023116558
-0.027285919
-0.030950704
-0.034036486
-0.036374035
-0.037787874
-0.03802743
-0.036948545
-0.034558203
-0.031136692
-0.026977447
-0.022372175
-0.017545632
-0.012722005
-0.0081198316
-0.0037180737
-2.0540315e-05
0.0013687274
0.0042163531
0.0011411982
-0.0015172936
-0.0055838898
-0.0093696986
-0.013354098
-0.017198614
-0.020786594
-0.023858352
-0.026362847
-0.028192876
-0.029268018
-0.029448994
-0.02863138
-0.026819202
-0.024137962
-0.020775727
-0.016940542
-0.012846562
-0.0087316788
-0.0045608188
-0.0015499907
0.00096893479
0.0044202365
0.0012358483
-0.0013867417
-0.0048712322
-0.0082706503
-0.011516572
-0.014601667
-0.01723318
-0.019358613
-0.020867197
-0.021733242
-0.021881426
-0.021236488
-0.019801696
-0.017631243
-0.014881932
-0.011711171
-0.0082263019
-0.0046061949
-0.0017706092
0.00036549061
0.0028510981
0.0043048825
0.0012530971
-0.00061288968
-0.0034854641
-0.0063066703
-0.008979846
-0.0112617
-0.01312668
-0.01442385
-0.015154733
-0.015266603
-0.01472952
-0.013587171
-0.011864781
-0.0097004475
-0.007132132
-0.0041326217
-0.001791676
0.00028247822
0.0023190534
0.0043335192
0.0028726856
1.7151835e-05
-0.0016265287
-0.0038509909
-0.0056737997
-0.0072965392
-0.0084617122
-0.0091721744
-0.0093697467
-0.0089745037
-0.0080269226
-0.0065521465
-0.0047729969
-0.0028061139
7.4802798e-05
0.00083577611
0.0025774499
0.0046062123
0.0033825204
0.0017497139
0.00038770156
-0.0012450542
-0.0027659203
-0.0037243514
-0.0042658472
-0.0043649271
-0.0037572858
-0.0030054341
-0.0019118663
-0.0011055065
-0.00019848282
0.0025671854
0.0048789196
0.0028928768
0.0018386222
0.0010557672
0.00033510376
-0.00020528039
-0.00040922753
-0.00029388179
0.00017861142
0.00075158425
0.0024531117
0.0018034846
0.004079584
0.0036704367
0.0030238854
0.0031778396
0.0031104228
0.0041228268
0.0042083154
0.0041822846
0.0020591244
0.001808192
0.0017440185
0.0018604956
0.0039354259
0.0042893854
0.0045794375
0.001594241
0.00047562187
-0.0010138378
-0.002211173
-0.0033557479
-0.0036531869
-0.003412352
-0.0026874239
-0.0012898361
0.00010376521
0.0011956262
0.0030064431
0.0050707342
0.0044823203
0.0038478571
0.00042204925
-0.0020562502
-0.0042454964
-0.0061990656
-0.0076383344
-0.0085086148
-0.0086842219
-0.0083021926
-0.0074300911
-0.0060743705
-0.0045227248
-0.0025254215
-0.0010459743
0.0016657088
0.0042742284
0.0048573873
0.0019354277
-0.00055989468
-0.0040396193
-0.0069825858
-0.0095150799
-0.011655077
-0.013262182
-0.014351224
-0.014747353
-0.014441839
-0.013479147
-0.011864235
-0.009804637
-0.0073592825
-0.0047026245
-0.0019584442
-0.00012445138
0.002939703
0.0052292865
0.0024799919
-0.00034369482
-0.0043679531
-0.0082306148
-0.011710042
-0.014792543
-0.017400182
-0.019388916
-0.020681511
-0.021230942
-0.020948659
-0.019911298
-0.018120253
-0.015716362
-0.01280029
-0.0096717454
-0.0063923619
-0.0030101984
-0.00054074695
0.0025729825
0.0055317641
0.0025233685
6.3121979e-05
-0.0044801963
-0.0087969625
-0.013073324
-0.017096782
-0.020777238
-0.023974971
-0.026492482
-0.028112478
-0.028815235
-0.028488728
-0.02726795
-0.025182399
-0.022340638
-0.018865923
-0.015067167
-0.011091063
-0.0073054628
-0.0033435187
-0.00085191629
0.0024825881
0.0047956591
0.0010186995
-0.0034543401
-0.0081566802
-0.013039973
-0.017931466
-0.022696033
-0.027227987
-0.03131119
-0.034622342
-0.036838283
-0.037695001
-0.037216346
-0.035625207
-0.033026453
-0.029579335
-0.025430474
-0.020885201
-0.016160473
-0.011633738
-0.0071792362
-0.0033252548
0.00064297
0.0010402556
0.0064583762
0.0015308959
-0.001902728
-0.0068185347
-0.012036232
-0.017497819
-0.023100181
-0.028749864
-0.034336013
-0.039555028
-0.043909313
-0.046957708
-0.048143187
-0.047503247
-0.045376571
-0.041976292
-0.037585213
-0.032481462
-0.026998329
-0.021392132
-0.016063221
-0.010944483
-0.0065484853
-0.0022819242
5.1567231e-05
0.0034824964
3.7006458e-05
-0.004664873
-0.0099515351
-0.015723855
-0.021828644
-0.028237329
-0.034901913
-0.041744177
-0.048294626
-0.053812728
-0.057719178
-0.059476035
-0.05892576
-0.056307922
-0.052001156
-0.046388199
-0.039983785
-0.033286312
-0.026610927
-0.020365824
-0.01449006
-0.0094159426
-0.0044611112
-0.0010138053
0.0020101102
0.0061409878
0.0020503417
-0.0022061711
-0.0073175108
-0.012984076
-0.019244242
-0.025953001
-0.033146432
-0.040870188
-0.049043301
-0.056860694
-0.063279312
-0.06772272
-0.069821191
-0.06952974
-0.066844209
-0.061995336
-0.05534878
-0.04758805
-0.03950122
-0.031610524
-0.024356286
-0.017713108
-0.01192844
-0.0065308235
-0.0019791686
0.0015364324
0.0051403481
0.00044408467
-0.0040250448
-0.0095980338
-0.015612953
-0.022293116
-0.029506761
-0.037421904
-0.046186857
-0.055574899
-0.064273085
-0.071054202
-0.075555086
-0.077677288
-0.077491897
-0.074989747
-0.070103009
-0.063039543
-0.054362882
-0.045072656
-0.036013982
-0.027788649
-0.020436107
-0.014053691
-0.008362629
-0.00326494
-0.00069011245
0.0033795566
-0.0011713667
-0.005705492
-0.011535488
-0.017763539
-0.024696818
-0.032277938
-0.040816849
-0.050478452
-0.060716504
-0.069797412
-0.076652105
-0.080933856
-0.08290985
-0.082583756
-0.080324733
-0.075557903
-0.068531537
-0.059465335
-0.049369038
-0.039390964
-0.030376816
-0.02246062
-0.015625248
-0.009697096
-0.0043081988
-0.0014570276
0.0025307473
0.0028499558
-0.0024052754
-0.0070222888
-0.012914872
-0.019236798
-0.026270131
-0.03410167
-0.043108062
-0.053352225
-0.063944716
-0.073053263
-0.079548448
-0.082582217
-0.084869104
-0.085092226
-0.083070874
-0.078512942
-0.07165933
-0.062480923
-0.051939325
-0.041367359
-0.031859352
-0.023614092
-0.016573423
-0.010495361
-0.0053782691
-0.0019651611
0.0025237083
0.0010836867
-0.0022998354
-0.0078277837
-0.013631823
-0.019941113
-0.026971776
-0.034939922
-0.044199728
-0.054634216
-0.065081148
-0.073855809
-0.08019089
-0.084789899
-0.08674138
-0.085534019
-0.083427543
-0.079101045
-0.072323658
-0.063135486
-0.05242278
-0.04170342
-0.03214093
-0.023870404
-0.016773629
-0.010702933
-0.0051200549
-0.0016628673
0.0019064404
0.0022896154
-0.0028139361
-0.0079238948
-0.013704971
-0.019849285
-0.026751316
-0.034627534
-0.043775486
-0.053915818
-0.063874284
-0.072252087
-0.078199439
-0.083086896
-0.086678294
-0.08469441
-0.081984585
-0.077643714
-0.070850278
-0.061646541
-0.051030784
-0.040594218
-0.031339488
-0.023292554
-0.016369178
-0.010273572
-0.0054499082
-0.0017526377
0.0022575148
0.0028481822
-0.0019456362
-0.0074120646
-0.013013314
-0.018958413
-0.025644374
-0.033197476
-0.041806961
-0.051202255
-0.060568312
-0.068731835
-0.074951292
-0.078880412
-0.080700235
-0.080394219
-0.078467293
-0.074046162
-0.067308206
-0.058309212
-0.048156328
-0.038340701
-0.029632881
-0.021973588
-0.015322197
-0.0093010309
-0.0045888643
-0.0013222068
0.0027573056
0.0040806915
-0.0010542981
-0.0063001855
-0.011722003
-0.017371445
-0.023689648
-0.030673208
-0.038500432
-0.046922422
-0.055437391
-0.063144202
-0.069214943
-0.073302983
-0.075269057
-0.075038358
-0.07288573
-0.068448105
-0.061828815
-0.053310975
-0.043998469
-0.035113644
-0.027152995
-0.020019749
-0.01371319
-0.0079755572
-0.0031932567
-0.00065958814
0.0047988439
0.00016902823
-0.0046139084
-0.0098638027
-0.015124821
-0.020991518
-0.027296709
-0.034219218
-0.041507797
-0.048900196
-0.055806588
-0.061522804
-0.065492794
-0.067530495
-0.067436738
-0.065302876
-0.061001133
-0.054782688
-0.047123604
-0.038982828
-0.031213303
-0.024087746
-0.017552855
-0.011664381
-0.0064097278
-0.0017613357
-1.3735654e-05
0.0010757366
-0.0026379025
-0.0075694161
-0.012335362
-0.017702091
-0.023296547
-0.02932195
-0.035486513
-0.041628997
-0.047396488
-0.052339311
-0.055959951
-0.05797363
-0.058071609
-0.056162214
-0.052298769
-0.046863709
-0.04036622
-0.033523918
-0.026857038
-0.020539036
-0.014616465
-0.0092067135
-0.0044234084
-0.00060834468
0.0021767252
0.0041076239
-0.0004083252
-0.0048436476
-0.0090912293
-0.013951261
-0.018886454
-0.024114146
-0.029316139
-0.034360365
-0.038981369
-0.042946025
-0.045914345
-0.047654832
-0.047891929
-0.046417701
-0.04327497
-0.03885891
-0.033587003
-0.02793823
-0.022241759
-0.016670983
-0.011392366
-0.0064666165
-0.002739174
-0.00017184421
0.0035372347
0.005006699
0.0026953035
-0.0016048896
-0.0054467501
-0.0098746657
-0.014211786
-0.018769752
-0.02320026
-0.027413343
-0.031151563
-0.034290419
-0.036622232
-0.037987512
-0.038201701
-0.037117668
-0.034695808
-0.031224344
-0.026993053
-0.022320717
-0.017445816
-0.01259323
-0.0080010059
-0.0036257643
-5.8624829e-06
0.0012428876
0.004121025
0.00078704037
-0.0015905826
-0.0057157351
-0.0094700363
-0.013433865
-0.017234996
-0.020829346
-0.023949778
-0.026516564
-0.02838201
-0.029455989
-0.029626983
-0.028798273
-0.026945898
-0.024220823
-0.02081778
-0.016943371
-0.012802328
-0.0086614215
-0.0044716348
-0.0016244318
0.0010216395
0.0043622572
0.0010688324
-0.0013800023
-0.0049064943
-0.008295535
-0.011511002
-0.014593433
-0.017242981
-0.019419921
-0.020978392
-0.021877818
-0.02203867
-0.021386703
-0.019928945
-0.017730253
-0.014950496
-0.011734788
-0.0081958661
-0.0045475301
-0.0018428739
0.00039685167
0.0029341017
0.0043347521
0.0010514492
-0.00058185266
-0.0034672858
-0.0062581197
-0.008922788
-0.0112112
-0.013128004
-0.014479331
-0.015257716
-0.015397949
-0.014865113
-0.013719243
-0.011991032
-0.0098286434
-0.0072416432
-0.0042207354
-0.00196816
0.00025793875
0.0025477754
0.0043922653
0.0029588084
-9.5224792e-05
-0.0015938638
-0.0038186087
-0.0056142094
-0.007268737
-0.0084720866
-0.0092369952
-0.009487026
-0.0090835161
-0.008110778
-0.0066255485
-0.0048783452
-0.0028935815
1.0023363e-05
0.00088638054
0.0024433926
0.0045506754
0.0034386248
0.0017389256
0.00039289058
-0.0012300884
-0.0028576605
-0.003887692
-0.004471876
-0.0045504505
-0.0038374001
-0.003068306
-0.0020427294
-0.0013093511
-0.00025752641
0.0026829244
0.0048746952
0.0027685807
0.0017919272
0.00099440095
0.00031109032
-0.00021521495
-0.00041202884
-0.00040516556
0.00020888721
0.0006521007
0.0025063254
0.0016917053
0.0041197476
0.0036816844
0.0030140956
0.0032384254
0.0031528912
0.0037099346
0.0037223159
0.0037856753
0.0015661748
0.0013540927
0.0013261158
0.0014928302
0.0035915029
0.003983707
0.0041195118
0.00096906512
-2.7745023e-05
-0.0014812532
-0.0026254649
-0.0037805415
-0.0040312794
-0.0037278516
-0.0029586187
-0.0014786098
-3.1406017e-05
0.0010784008
0.0029460548
0.004906973
0.0040373922
0.003546098
-5.199095e-05
-0.0025593163
-0.0047231619
-0.0066390931
-0.0080172017
-0.0088035648
-0.0088777524
-0.0084200619
-0.0075046237
-0.0061100119
-0.0045619079
-0.0025243661
-0.0011386803
0.001742793
0.0039725335
0.004392648
0.0014752595
-0.00099260418
-0.0045842361
-0.0075344348
-0.010020007
-0.012103333
-0.01363391
-0.014636469
-0.014928023
-0.014522625
-0.0134896
-0.011830723
-0.0097720888
-0.007315173
-0.004669056
-0.0018662378
-0.00023449125
0.0028663009
0.0047970518
0.0022383124
-0.00055812477
-0.0047390348
-0.0087010267
-0.012197621
-0.015266352
-0.017850709
-0.019800988
-0.021025837
-0.02147313
-0.021072674
-0.019931961
-0.018063964
-0.015642457
-0.012731033
-0.0096309719
-0.0063313014
-0.0029144573
-0.00055155645
0.0025175895
0.0049491563
0.0022782845
-3.6313867e-05
-0.0048295311
-0.0092471093
-0.013566049
-0.017602092
-0.021283204
-0.024475843
-0.02698084
-0.02856224
-0.029194115
-0.028767298
-0.027432161
-0.025228022
-0.022312444
-0.018808113
-0.015036217
-0.011060931
-0.0072942231
-0.0032382862
-0.00092353165
0.0024537724
0.005094187
0.0010572292
-0.0036413525
-0.0084769822
-0.013419324
-0.018350521
-0.02314705
-0.027703718
-0.031797563
-0.035102402
-0.037302294
-0.038132874
-0.037598679
-0.035928703
-0.033214049
-0.029658311
-0.025435671
-0.020884847
-0.016164931
-0.011677193
-0.007143986
-0.0033525522
0.00077515153
0.000263644
0.0064409404
0.0014209086
-0.001999302
-0.0070526569
-0.012343927
-0.01784232
-0.023489768
-0.029185902
-0.034793823
-0.039985599
-0.044274681
-0.047263984
-0.048409397
-0.047774673
-0.045660935
-0.042215499
-0.037752282
-0.032571144
-0.027057209
-0.021439776
-0.016153258
-0.010989251
-0.0066401567
-0.0022452257
-7.8983454e-05
0.0035436072
4.995883e-05
-0.0047626461
-0.010137963
-0.015952413
-0.022107915
-0.028589697
-0.035313816
-0.042131686
-0.048557315
-0.05391967
-0.05770496
-0.05937476
-0.058824973
-0.056280795
-0.052037888
-0.046475282
-0.04008479
-0.033391486
-0.026708207
-0.020492027
-0.014579794
-0.0095417634
-0.0044730985
-0.0011294708
0.0018128397
0.0058846143
0.0019624595
-0.0022917236
-0.007446204
-0.013136429
-0.019436242
-0.026219994
-0.033515749
-0.041277593
-0.049319321
-0.05689731
-0.063137088
-0.067480676
-0.069521362
-0.06918829
-0.06650493
-0.061711671
-0.055188963
-0.047566197
-0.039587348
-0.031737247
-0.024514378
-0.017830917
-0.012054106
-0.0065413097
-0.0020223601
0.0015040102
0.0049168753
0.00024999356
-0.0041295335
-0.0097089605
-0.015716992
-0.022463958
-0.029795379
-0.037834116
-0.04657352
-0.055701988
-0.064121198
-0.070830266
-0.07534204
-0.077469539
-0.077216228
-0.074627424
-0.069701984
-0.062695944
-0.0541763
-0.045081531
-0.036141339
-0.027968258
-0.020579021
-0.014177154
-0.0084020757
-0.0032769023
-0.00081933471
0.0030902753
-0.001472816
-0.00586845
-0.011655306
-0.017875566
-0.024905566
-0.032635809
-0.041284508
-0.050823098
-0.0607186
-0.069576926
-0.076534907
-0.08086003
-0.082905777
-0.082539402
-0.080208659
-0.075266984
-0.068163051
-0.05917168
-0.049295256
-0.039505096
-0.030570911
-0.022622217
-0.015737384
-0.009754278
-0.0042962868
-0.0016255586
0.0022604856
0.0024744043
-0.0027560669
-0.0072369467
-0.013054473
-0.019392314
-0.026547252
-0.034534122
-0.043601255
-0.053636503
-0.063857715
-0.072865817
-0.079534202
-0.082568404
-0.084854735
-0.085091177
-0.083107589
-0.078366725
-0.071334085
-0.06215382
-0.051814953
-0.041476859
-0.032063978
-0.023772547
-0.016669309
-0.010553111
-0.0054323302
-0.0020937379
0.0024922727
0.000499746
-0.0026381805
-0.0081053089
-0.013815271
-0.020174037
-0.027330183
-0.035431143
-0.044688064
-0.054856757
-0.064975017
-0.073771243
-0.080221819
-0.084878267
-0.086826225
-0.085600271
-0.08355815
-0.07901471
-0.072003411
-0.06281521
-0.05232123
-0.041848188
-0.032354327
-0.024017375
-0.01683463
-0.010721645
-0.0050888384
-0.0018617743
0.0018523789
0.0017863614
-0.0032853813
-0.0082692895
-0.013969936
-0.020172285
-0.027186304
-0.035149246
-0.044262207
-0.054128351
-0.063834071
-0.072214279
-0.078211355
-0.083203705
-0.086703038
-0.084899601
-0.082145491
-0.077555055
-0.070517203
-0.061374236
-0.051014963
-0.040796511
-0.031558856
-0.023413391
-0.016394458
-0.010237426
-0.0054824255
-0.0018509688
0.002239847
0.0023040571
-0.0023935359
-0.0078291716
-0.013345015
-0.019336719
-0.026125884
-0.033728161
-0.042299552