/*--------------------------------*- C++ -*----------------------------------*\
| =========                 |                                                 |
| \\      /  F ield         | OpenFOAM: The Open Source CFD Toolbox           |
|  \\    /   O peration     | Version:  2406                                  |
|   \\  /    A nd           | Website:  www.openfoam.com                      |
|    \\/     M anipulation  |                                                 |
\*---------------------------------------------------------------------------*/
FoamFile
{
    version     2.0;
    format      ascii;
    arch        "LSB;label=32;scalar=64";
    class       volScalarField;
    location    "200";
    object      epsilon;
}
// * * * * * * * * * * * * * * * * * * * * * * * * * * * * * * * * * * * * * //

dimensions      [0 2 -3 0 0 0 0];

internalField   nonuniform List<scalar> 
150387
(
0.00027224981
1.1882481e-05
8.0407825e-06
7.6636854e-06
1.0682593e-05
1.1161269e-05
1.4918098e-05
3.7244813e-05
0.00011294835
1.4232508e-05
1.1579057e-05
1.063937e-05
1.1241379e-05
1.2752412e-05
1.4172721e-05
1.8769706e-05
2.1372627e-05
2.7450571e-05
4.4234203e-05
6.7971146e-05
3.0246975e-05
1.5630167e-05
1.517987e-05
1.5519807e-05
1.5800048e-05
1.5226174e-05
1.4006392e-05
1.4153949e-05
1.6401932e-05
2.2913609e-05
2.8047844e-05
3.6052426e-05
5.4923988e-05
8.2357438e-05
4.2980456e-05
1.7433376e-05
1.0896695e-05
0.00015924275
1.7680609e-05
1.8157625e-05
1.9803708e-05
2.0370504e-05
2.0202103e-05
1.8719039e-05
1.6757251e-05
1.8276767e-05
2.3716888e-05
3.0021253e-05
3.4059657e-05
3.9130301e-05
5.164356e-05
6.9746501e-05
4.410142e-05
3.0480787e-05
2.075297e-05
1.5887187e-05
0.00024005935
1.8165176e-05
2.1717592e-05
2.4182623e-05
2.462092e-05
2.4443633e-05
2.4014036e-05
2.1977189e-05
2.0298104e-05
2.6991349e-05
4.207857e-05
4.9942888e-05
4.6154372e-05
4.3014446e-05
4.5852506e-05
5.2545145e-05
3.9020737e-05
3.42488e-05
2.6652423e-05
1.7132198e-05
1.1883133e-05
2.1882861e-05
2.7317307e-05
3.0437215e-05
3.0258473e-05
2.9540581e-05
3.0098336e-05
2.9947206e-05
2.6635014e-05
2.4893855e-05
4.0504458e-05
7.2106603e-05
8.9647249e-05
7.8126751e-05
5.7813751e-05
4.6676361e-05
4.3184475e-05
3.4793151e-05
3.2181818e-05
2.7526137e-05
2.0564429e-05
1.3647993e-05
1.6057698e-05
1.9911764e-05
3.3678836e-05
3.9256718e-05
3.8338177e-05
3.6527049e-05
3.7302241e-05
4.0918095e-05
4.1774235e-05
3.5999365e-05
2.9929476e-05
5.3689332e-05
0.00010704555
0.00014383008
0.0001307517
9.3681496e-05
5.982289e-05
4.282906e-05
3.3150956e-05
2.9310417e-05
2.5777177e-05
2.1134313e-05
1.5872958e-05
1.1308936e-05
2.1403741e-05
5.9530152e-05
4.1027124e-05
5.1029672e-05
4.9619406e-05
4.5715116e-05
4.6235143e-05
5.4925512e-05
6.7335934e-05
6.8783056e-05
5.6460103e-05
3.7760195e-05
5.7037621e-05
0.00012822796
0.00018605187
0.0001793
0.00013253495
8.3959431e-05
5.0269868e-05
3.4310758e-05
2.7240254e-05
2.3708297e-05
2.0214908e-05
1.6365841e-05
1.1908413e-05
8.5659159e-06
7.0814294e-05
9.6348804e-05
8.9862137e-05
7.1254712e-05
6.066756e-05
6.6933034e-05
9.5679973e-05
0.00011902634
0.00011572816
9.3326711e-05
6.0293179e-05
4.9419006e-05
0.00011458075
0.0001754517
0.00017933275
0.00014012533
9.4024304e-05
5.6625563e-05
3.5608505e-05
2.6472823e-05
2.2253253e-05
1.9050179e-05
1.5826464e-05
1.2059421e-05
8.4945142e-06
1.0168451e-05
6.7943092e-05
8.7253132e-05
8.1099576e-05
7.0365071e-05
7.3045629e-05
0.00011259671
0.00017364904
0.00020015609
0.00018505496
0.00014556884
9.9419804e-05
5.3278206e-05
7.0700524e-05
0.00012413873
0.00013565309
0.00011332597
7.9523821e-05
4.9711266e-05
3.2028108e-05
2.4545387e-05
2.0880069e-05
1.7889246e-05
1.4900515e-05
1.1783811e-05
8.3270826e-06
4.4954853e-06
2.3510219e-05
4.1210214e-05
5.6561775e-05
6.0455169e-05
6.7676326e-05
0.00010652722
0.00020186644
0.00028740827
0.00031753647
0.00028061404
0.00020931786
0.00014174116
8.189569e-05
4.2552497e-05
6.23258e-05
8.188612e-05
7.2445962e-05
5.0552139e-05
3.3812605e-05
3.035964e-05
2.9248502e-05
2.5418966e-05
2.0256625e-05
1.5362422e-05
1.1671806e-05
8.2532906e-06
5.0914444e-06
1.6994347e-05
2.8351513e-05
4.0955765e-05
5.3652601e-05
8.5957038e-05
0.00018164342
0.00031638087
0.00043432563
0.00045712647
0.00038781732
0.00027864275
0.0001786046
0.00010268834
5.1307545e-05
2.7644946e-05
3.3469121e-05
3.240731e-05
3.1472259e-05
4.6600717e-05
6.1987403e-05
6.3188732e-05
5.2174952e-05
3.6970707e-05
2.3609442e-05
1.5056918e-05
1.0523425e-05
8.1159814e-06
4.7885834e-06
1.6376509e-05
2.5741048e-05
3.6249421e-05
5.9306073e-05
0.0001321931
0.00026237709
0.00043052167
0.00056913722
0.00057498249
0.00046980811
0.00032437685
0.00019729332
0.00010553474
4.7259891e-05
1.8422816e-05
1.1194871e-05
2.2567999e-05
5.4085618e-05
9.1238215e-05
0.00011637368
0.00011532758
9.3621641e-05
6.5204463e-05
3.9105104e-05
2.3020909e-05
1.6247234e-05
1.204054e-05
5.278638e-06
1.5176026e-05
2.3054636e-05
3.3966663e-05
7.0380666e-05
0.00015674437
0.00029121261
0.00045808845
0.00057993864
0.00056835356
0.00045014808
0.00029978147
0.00017770755
8.0318413e-05
8.7652843e-05
7.6339421e-06
1.7831382e-05
2.9113168e-05
7.6429236e-05
0.00012747382
0.00016710491
0.00016108509
0.000123409
8.1933999e-05
4.8270438e-05
2.9905206e-05
2.3074245e-05
1.8311128e-05
1.1935349e-05
1.1160419e-05
1.8580374e-05
2.9624133e-05
6.5006951e-05
0.00013814265
0.00024088257
0.00036505183
0.00044812728
0.0004305169
0.00033282496
0.0002195773
0.00010877335
4.3495988e-05
3.9231917e-05
5.6105113e-05
4.6807895e-05
3.3735829e-05
7.2554198e-05
0.00013067257
0.00017301575
0.00016177076
0.00011746706
7.3793747e-05
4.42926e-05
3.2109999e-05
2.7145406e-05
2.0880114e-05
1.7727516e-05
7.5958059e-06
1.3885295e-05
1.9034951e-05
3.8503335e-05
8.4188773e-05
0.00015049304
0.00021974143
0.00025946657
0.00024942403
0.00018867023
9.978329e-05
6.9562249e-05
0.00011428865
0.00013468648
0.00012666234
9.6661958e-05
5.8660032e-05
5.0069499e-05
9.3495629e-05
0.00012072372
0.00011073166
8.0217064e-05
5.2663635e-05
3.914424e-05
3.4187031e-05
3.0493565e-05
2.191108e-05
2.2189201e-05
3.8286778e-06
8.7060508e-06
1.178552e-05
1.87946e-05
3.4027465e-05
6.0757395e-05
9.2859455e-05
0.00011010376
9.8220562e-05
6.0763409e-05
8.2075232e-05
0.00016373093
0.00022469359
0.00024726941
0.00022228934
0.00016778977
0.00010695153
5.1151304e-05
5.1234857e-05
6.6824368e-05
6.210846e-05
4.8834708e-05
3.9921213e-05
3.7526846e-05
4.0094814e-05
3.9936629e-05
2.5103118e-05
5.4632111e-05
4.6932847e-06
6.5081351e-06
1.0669758e-05
1.4385649e-05
1.8714642e-05
2.4355331e-05
3.0126875e-05
3.3971149e-05
3.9379594e-05
7.6449538e-05
0.00015957012
0.00025642287
0.00036181477
0.00040149671
0.00035461136
0.00025553914
0.00016495547
8.4141215e-05
3.7104874e-05
3.6805479e-05
3.6774379e-05
3.4426509e-05
3.4435329e-05
3.941229e-05
4.8885217e-05
5.5249373e-05
2.8214994e-05
7.3438988e-06
1.0783762e-05
1.468854e-05
1.8290406e-05
2.1785598e-05
2.5498662e-05
3.2191694e-05
5.3086757e-05
0.00010927932
0.00020764246
0.00034507559
0.00049445197
0.00055927718
0.00049145079
0.00035000207
0.00021673342
0.00011639964
4.4732173e-05
2.7441647e-05
2.7409416e-05
2.7862248e-05
3.1431353e-05
3.8884833e-05
5.2144406e-05
6.2262842e-05
3.5309109e-05
9.2250033e-06
1.0512201e-05
1.4793433e-05
1.9088513e-05
2.273018e-05
2.6624307e-05
3.3432242e-05
5.2543465e-05
0.00010720627
0.00021613479
0.00037527732
0.00055435222
0.00064510007
0.00057498829
0.00040814552
0.00024775345
0.00013307892
5.0913146e-05
2.4867978e-05
2.3668493e-05
2.5042205e-05
2.815972e-05
3.1149848e-05
2.8897165e-05
1.6967028e-05
1.2398513e-05
1.0479068e-05
1.4557187e-05
1.9918845e-05
2.4856709e-05
2.9149963e-05
3.3496148e-05
4.5477058e-05
7.8303659e-05
0.00016231494
0.00029957388
0.00046810676
0.00056478263
0.00051923268
0.00037687077
0.00023211118
0.00012442637
4.6569203e-05
2.2390281e-05
2.1211812e-05
2.4117982e-05
2.9416529e-05
3.5119563e-05
3.3268648e-05
1.713048e-05
1.4946136e-05
1.353959e-05
1.96364e-05
2.6963958e-05
3.3220829e-05
3.607626e-05
4.4276041e-05
5.8716869e-05
9.4703408e-05
0.00018723757
0.00032318996
0.00040808716
0.00038739909
0.0002892592
0.00018509883
9.7620645e-05
3.4953233e-05
1.8819881e-05
1.8286453e-05
2.0841083e-05
2.4132375e-05
2.3555937e-05
1.7350902e-05
1.5593786e-05
1.4882635e-05
1.696e-05
2.7169068e-05
3.7077717e-05
4.0122211e-05
5.15521e-05
5.8959146e-05
6.4970454e-05
9.7902608e-05
0.00018195154
0.00024432753
0.00024381198
0.00019088221
0.00012801578
6.4735361e-05
2.3656153e-05
1.481845e-05
1.4757959e-05
1.6045283e-05
1.5706209e-05
1.2093234e-05
1.0972714e-05
1.4725318e-05
2.2443573e-05
3.6777151e-05
4.2747519e-05
6.8685508e-05
7.2554307e-05
6.1577318e-05
6.1747955e-05
8.4306362e-05
0.00012509547
0.00013650789
0.00011396548
7.6529109e-05
3.6335043e-05
1.5332697e-05
1.1014298e-05
1.0603752e-05
1.0518836e-05
9.061746e-06
8.6515398e-06
1.7604321e-05
2.5789224e-05
3.7012831e-05
9.2769458e-05
9.3050835e-05
6.6958473e-05
5.1943581e-05
4.9088403e-05
5.6304095e-05
6.4600584e-05
5.7827639e-05
3.9097137e-05
1.9459062e-05
1.0479847e-05
8.0725446e-06
6.5884488e-06
6.4217841e-06
1.0636579e-05
9.5206114e-06
2.2382755e-05
9.0327146e-05
9.5509804e-05
6.441496e-05
4.4240229e-05
3.6580645e-05
3.5375646e-05
3.4134768e-05
3.0345767e-05
2.1886619e-05
1.220488e-05
6.6011482e-06
5.0078504e-06
4.513001e-06
1.488032e-05
4.1159748e-05
3.6764512e-05
3.4905112e-05
2.8276048e-05
2.4099849e-05
2.3761479e-05
2.3904704e-05
2.1458401e-05
1.6499067e-05
8.7397932e-06
3.9679731e-06
4.2311188e-06
5.7569917e-05
2.6005161e-05
2.2937103e-05
2.1964525e-05
3.4622941e-05
2.4303441e-05
4.2655206e-05
1.3702338e-05
1.1208052e-05
1.0939288e-05
1.063961e-05
1.1695421e-05
1.2710657e-05
1.5762941e-05
2.5226285e-05
2.1369392e-05
8.9157251e-06
8.6618397e-06
9.616566e-06
1.2618949e-05
1.5603725e-05
1.6704521e-05
1.7383291e-05
2.2202175e-05
3.6666567e-05
5.5239715e-05
6.8241948e-05
3.2430414e-05
2.2539261e-05
4.2394642e-05
1.1560233e-05
1.1096032e-05
1.1080626e-05
1.154437e-05
1.2418271e-05
1.4324034e-05
1.7688606e-05
2.0857047e-05
2.2887499e-05
2.8426878e-05
4.5100127e-05
7.1971625e-05
9.0905753e-05
4.6978496e-05
3.0442406e-05
1.9290669e-05
3.3361821e-05
1.6149878e-05
1.5498019e-05
1.4994946e-05
1.4652751e-05
1.4849835e-05
1.5529359e-05
1.7591881e-05
2.3138973e-05
2.9902572e-05
3.2411983e-05
3.502571e-05
4.6737559e-05
6.7237697e-05
7.9311737e-05
4.8436936e-05
3.9884174e-05
2.637739e-05
1.7945434e-05
3.489862e-05
2.3858156e-05
2.4569831e-05
2.3069006e-05
2.0564635e-05
1.9132669e-05
1.8895775e-05
1.9373131e-05
2.2565181e-05
3.3109784e-05
4.6088133e-05
5.0309575e-05
4.6107002e-05
4.6039462e-05
5.4659741e-05
5.8208922e-05
4.2428034e-05
4.0194598e-05
2.9819906e-05
1.889935e-05
1.5676553e-05
5.0942269e-05
3.501046e-05
3.89218e-05
3.7112362e-05
3.2219918e-05
2.7849117e-05
2.5956987e-05
2.5462269e-05
2.4841453e-05
2.8552454e-05
4.5739133e-05
6.7895469e-05
7.7263028e-05
6.785644e-05
5.3478018e-05
4.6473981e-05
4.2757307e-05
3.4641628e-05
3.4068913e-05
2.7857159e-05
1.9320742e-05
1.3126165e-05
1.5539815e-05
4.3418455e-05
5.5190971e-05
5.6195719e-05
4.9383217e-05
4.2059297e-05
3.8172715e-05
3.8007582e-05
3.768534e-05
3.4145879e-05
3.4817718e-05
5.6991456e-05
9.087999e-05
0.00010888767
9.6520078e-05
7.1300357e-05
4.9692512e-05
3.6635868e-05
2.8828067e-05
2.675745e-05
2.3038752e-05
1.753199e-05
1.2441574e-05
8.9913291e-06
2.3596334e-05
2.8792096e-05
7.2093651e-05
7.8672092e-05
7.0506108e-05
5.9527008e-05
5.3449147e-05
5.5421717e-05
6.0184623e-05
5.9541889e-05
5.0876119e-05
4.2246126e-05
6.1041147e-05
0.0001026991
0.00012758361
0.00011704292
8.7534573e-05
5.8618322e-05
3.8014147e-05
2.6757035e-05
2.2253062e-05
1.8976857e-05
1.5395654e-05
1.1788065e-05
8.6299009e-06
8.2187544e-06
9.5599921e-05
0.00013426566
0.00012474738
9.8800339e-05
7.9993426e-05
7.7812044e-05
8.8920926e-05
9.7199945e-05
9.2923084e-05
7.7159549e-05
5.6275597e-05
5.6562323e-05
9.0518846e-05
0.00011759168
0.00011282607
8.8496386e-05
6.1382567e-05
3.97387e-05
2.6738773e-05
2.0692986e-05
1.7332247e-05
1.4537835e-05
1.1704e-05
8.8891834e-06
6.492793e-06
1.3289348e-05
6.6449647e-05
7.9631476e-05
0.00010553309
0.00010321971
9.2151951e-05
9.1496272e-05
0.00011345422
0.00013855874
0.00014747628
0.00013590834
0.00011026937
7.9139608e-05
5.5418927e-05
6.4867512e-05
8.667911e-05
8.8872525e-05
7.3820988e-05
5.3413766e-05
3.6502734e-05
2.6911981e-05
2.2608937e-05
1.9359108e-05
1.6149256e-05
1.298899e-05
1.0110331e-05
6.9774905e-06
5.17561e-06
3.1119966e-05
5.5372756e-05
6.7251297e-05
7.4120466e-05
8.4964055e-05
0.00011831609
0.00016544011
0.00020294734
0.00020993189
0.00018625083
0.00014589342
0.00010274121
6.5620436e-05
4.6545028e-05
5.239717e-05
5.8235823e-05
5.1382471e-05
4.0229339e-05
3.5295438e-05
3.5354926e-05
3.4049262e-05
2.9473696e-05
2.3312907e-05
1.7560003e-05
1.3347381e-05
1.0121274e-05
7.5110926e-06
2.2228774e-05
3.4177286e-05
4.3951939e-05
6.1873362e-05
9.9327083e-05
0.00015932073
0.00023060989
0.00027636802
0.0002758447
0.00023566984
0.00017666412
0.00011933099
7.2425175e-05
4.2159643e-05
2.9763278e-05
3.2097016e-05
3.3892235e-05
4.1619791e-05
5.4096503e-05
6.2129719e-05
6.0437384e-05
5.0753413e-05
3.8328518e-05
2.7073543e-05
1.9123188e-05
1.4217076e-05
1.0954492e-05
1.3475585e-05
1.8706571e-05
2.3726364e-05
3.6080216e-05
6.6195736e-05
0.00011947825
0.0001969667
0.00028393151
0.00032743508
0.00031749482
0.00026222308
0.00018846615
0.00012077421
7.8633004e-05
4.2936688e-05
2.2801591e-05
2.083382e-05
3.7223278e-05
6.0797311e-05
8.2823962e-05
9.4798304e-05
9.0025773e-05
7.2450282e-05
5.2135534e-05
3.4951913e-05
2.3387207e-05
1.6434649e-05
1.2500635e-05
1.1473898e-05
1.6404464e-05
2.0274301e-05
3.5523525e-05
6.9341392e-05
0.0001219867
0.00019944372
0.00028114433
0.00031720297
0.00030048613
0.00023981025
0.00016594388
9.9608512e-05
6.4457405e-05
0.00018033457
1.7624096e-05
2.9476575e-05
4.2429537e-05
7.2668646e-05
0.00010186267
0.00011667266
0.00010809356
8.2472568e-05
5.6164934e-05
3.6326843e-05
2.4622159e-05
1.7369008e-05
1.2561522e-05
1.4423003e-05
1.2404039e-05
1.8462552e-05
3.2187416e-05
5.9646051e-05
9.9857176e-05
0.00015372781
0.0002089355
0.00023404994
0.00021645754
0.0001698301
0.00011444009
7.0531007e-05
4.8632255e-05
6.4390791e-05
5.3917069e-05
4.9335606e-05
4.511317e-05
6.7622936e-05
9.5924152e-05
0.00010874184
9.8008944e-05
7.2282671e-05
4.874653e-05
3.4224414e-05
2.6614167e-05
2.0135937e-05
1.4094448e-05
1.8197217e-05
1.1152745e-05
1.5392106e-05
2.3185925e-05
4.0040159e-05
6.5735269e-05
9.7242461e-05
0.00012561564
0.00013810708
0.00012712494
9.8155268e-05
7.6055225e-05
8.5503757e-05
0.00010599781
0.00011436228
0.00010282558
8.115918e-05
5.6827292e-05
5.3376967e-05
6.9010018e-05
7.5783189e-05
6.6881636e-05
5.090804e-05
3.9355325e-05
3.6039678e-05
3.4771607e-05
2.8462564e-05
1.5800572e-05
3.0179556e-05
7.6305781e-06
1.0925875e-05
1.4607283e-05
2.1699549e-05
3.3712676e-05
4.8866274e-05
6.1975162e-05
6.6587811e-05
6.2380718e-05
6.5059909e-05
9.5700652e-05
0.0001380061
0.00017260516
0.00018318262
0.00016109186
0.0001227198
8.2109912e-05
5.0289438e-05
4.3859064e-05
4.477508e-05
4.0261268e-05
3.5241166e-05
3.660141e-05
4.4609473e-05
5.0584481e-05
4.3150392e-05
2.0901975e-05
7.0216492e-06
7.6662865e-06
1.0961177e-05
1.4301703e-05
1.8716126e-05
2.4099674e-05
2.8985196e-05
3.3902326e-05
4.6841314e-05
8.0873021e-05
0.00013053978
0.00018830968
0.00024166339
0.00026029867
0.00022614711
0.00016733874
0.00011106437
6.3028636e-05
3.4931699e-05
2.8040886e-05
2.6561653e-05
2.8806142e-05
3.8181191e-05
5.4228613e-05
6.8666221e-05
5.9886201e-05
2.7282483e-05
6.9799786e-06
9.6457906e-06
1.2759399e-05
1.6098042e-05
1.9461599e-05
2.3235488e-05
3.0644485e-05
5.1103284e-05
9.151944e-05
0.00014918493
0.00022348479
0.00029437593
0.00032376127
0.00028254421
0.00020529002
0.00013391642
7.7097148e-05
3.6626364e-05
2.3114017e-05
2.1745636e-05
2.6378338e-05
3.7231329e-05
5.3787315e-05
6.9738772e-05
6.2573818e-05
2.1750736e-05
7.0523299e-06
9.3472364e-06
1.3142442e-05
1.7574912e-05
2.2101256e-05
2.5937264e-05
3.1697732e-05
4.8809529e-05
8.6166818e-05
0.0001451062
0.00022529393
0.00030672988
0.00034488165
0.00030527817
0.00022155476
0.00014266997
8.2211546e-05
3.8566356e-05
2.1876489e-05
2.069516e-05
2.6075335e-05
3.3539399e-05
3.7018255e-05
3.2268196e-05
2.4230103e-05
4.0280704e-05
3.6021793e-05
9.7510428e-06
1.4221747e-05
2.0691992e-05
2.7981721e-05
3.3036702e-05
3.635171e-05
4.8109062e-05
7.2372492e-05
0.00011921173
0.00018814228
0.00026780567
0.00031001583
0.00027883773
0.00020478755
0.00013256292
7.6272596e-05
3.5933241e-05
2.0580707e-05
2.0812509e-05
2.7810152e-05
3.6707778e-05
3.8952894e-05
2.8983547e-05
1.5806931e-05
1.3502415e-05
1.5122704e-05
2.32389e-05
3.4553257e-05
4.3356118e-05
4.5993679e-05
5.8253167e-05
6.7814248e-05
8.832119e-05
0.00013259118
0.00018823535
0.00022451093
0.00020947762
0.00015996486
0.00010674243
6.1631552e-05
2.9179909e-05
1.749203e-05
1.8322916e-05
2.3822357e-05
2.8372777e-05
2.594592e-05
2.1032117e-05
1.622482e-05
2.2633897e-05
3.7071186e-05
5.1591317e-05
5.8006593e-05
8.0915022e-05
8.171714e-05
7.4819819e-05
8.6206422e-05
0.00011555269
0.0001379422
0.00013458315
0.00010919815
7.5699149e-05
4.4131665e-05
2.1455898e-05
1.3705741e-05
1.4020944e-05
1.6465176e-05
1.7291251e-05
1.4661069e-05
2.059597e-05
1.8163452e-05
3.2379025e-05
5.1042802e-05
6.6868732e-05
0.00011056455
0.00010189492
7.7422329e-05
6.2498825e-05
6.6258952e-05
7.7601915e-05
7.9299742e-05
6.7678632e-05
4.8683234e-05
2.9001903e-05
1.51624e-05
1.0217855e-05
9.824346e-06
1.0717948e-05
1.0165341e-05
1.7713454e-05
2.4137359e-05
3.8470168e-05
6.3226302e-05
0.00012511589
0.00010677111
7.3044516e-05
4.9899399e-05
4.0305786e-05
4.047051e-05
4.1981138e-05
3.8071697e-05
2.9066711e-05
1.8526328e-05
1.0748447e-05
7.4284842e-06
6.3492736e-06
6.7009287e-06
1.4873812e-05
1.8666493e-05
2.9116243e-05
9.1231554e-05
7.6802077e-05
5.5818916e-05
3.8263267e-05
2.7395984e-05
2.4203567e-05
2.4029917e-05
2.2288637e-05
1.8131995e-05
1.231116e-05
6.5998905e-06
6.0169711e-06
5.9756938e-06
2.5335399e-05
3.507423e-05
3.507013e-05
2.582338e-05
1.9606226e-05
1.8344532e-05
1.8931501e-05
1.8212054e-05
1.5979331e-05
1.2025927e-05
6.4973318e-06
8.2013244e-06
7.2963289e-05
2.7189052e-05
2.4375105e-05
2.4951328e-05
3.0014442e-05
4.8068005e-05
1.852544e-05
1.5239345e-05
1.6057157e-05
1.581583e-05
1.6367574e-05
1.8899866e-05
2.9263099e-05
5.2852332e-05
2.4277868e-05
1.0948596e-05
1.052357e-05
1.2064867e-05
1.5871334e-05
1.9094602e-05
2.0008099e-05
2.1108629e-05
2.9430604e-05
5.3538899e-05
8.4756743e-05
0.00010959286
4.5606067e-05
4.3949895e-05
5.7974745e-05
1.4633283e-05
1.3420696e-05
1.2828599e-05
1.3207567e-05
1.4655571e-05
1.732017e-05
2.1108211e-05
2.3940662e-05
2.6019985e-05
3.4696775e-05
6.0738121e-05
0.00010554627
0.00013888
6.7961822e-05
4.349251e-05
2.4962502e-05
4.1672561e-05
2.1185653e-05
1.9798313e-05
1.8129132e-05
1.6766684e-05
1.6678981e-05
1.7939055e-05
2.0895388e-05
2.6836189e-05
3.3351647e-05
3.5920622e-05
4.1133971e-05
6.1043457e-05
9.5875708e-05
0.00011601041
6.9393155e-05
5.6154761e-05
3.5452519e-05
2.3939289e-05
4.1354618e-05
3.1290382e-05
3.2680943e-05
2.9957646e-05
2.5504402e-05
2.2075639e-05
2.1038148e-05
2.2065446e-05
2.6226201e-05
3.6974486e-05
5.0181397e-05
5.4358857e-05
5.1075102e-05
5.6172707e-05
7.377144e-05
8.1906346e-05
6.0256476e-05
5.7038078e-05
4.0605931e-05
2.5151139e-05
2.1269213e-05
6.7625324e-05
4.752736e-05
5.3674694e-05
5.1216164e-05
4.2924401e-05
3.4534574e-05
2.921694e-05
2.7519796e-05
2.77116e-05
3.2690562e-05
5.0328144e-05
7.3474847e-05
8.2814519e-05
7.215561e-05
5.870209e-05
5.6237496e-05
5.6196748e-05
4.7867335e-05
4.7915365e-05
3.835889e-05
2.5871468e-05
1.770944e-05
1.934256e-05
6.1980717e-05
7.9156022e-05
8.0349621e-05
6.8982835e-05
5.4744828e-05
4.4141743e-05
3.969337e-05
3.8684438e-05
3.6792395e-05
3.9792554e-05
6.3119079e-05
9.7713486e-05
0.00011388893
0.00010062015
7.3759725e-05
5.3203735e-05
4.2861774e-05
3.6892549e-05
3.62865e-05
3.1031173e-05
2.2942501e-05
1.6175059e-05
1.216567e-05
3.2536523e-05
3.7788e-05
0.00010463784
0.00011324459
9.9398084e-05
7.9576867e-05
6.3398656e-05
5.6776343e-05
5.7930205e-05
5.8307099e-05
5.2290348e-05
4.741834e-05
6.9102729e-05
0.00011102086
0.00013112827
0.00011918671
8.9303001e-05
5.9740153e-05
4.0424848e-05
3.0760313e-05
2.7491553e-05
2.404465e-05
1.9230077e-05
1.4604433e-05
1.1056093e-05
1.0865826e-05
0.00015665063
0.00020837379
0.00018323959
0.00013642813
9.8777136e-05
8.078009e-05
8.2662821e-05
9.0048418e-05
8.8975439e-05
7.6492285e-05
5.9524181e-05
6.5019229e-05
0.00010034468
0.00012372426
0.00011594003
9.1043235e-05
6.2928358e-05
4.1466579e-05
2.9223635e-05
2.3805086e-05
2.0530479e-05
1.7351645e-05
1.4077324e-05
1.1016732e-05
8.6599604e-06
1.6164777e-05
0.00014476086
0.00012395447
0.00015601263
0.00014568384
0.00011834065
9.9109811e-05
0.00010585643
0.00012587497
0.00013636938
0.0001289453
0.00010754815
7.9592295e-05
6.1063618e-05
7.3720049e-05
9.4067946e-05
9.3888241e-05
7.7399614e-05
5.6147843e-05
3.9370518e-05
2.9952838e-05
2.5672418e-05
2.2381866e-05
1.9105729e-05
1.5759765e-05
1.2645028e-05
9.3871386e-06
7.7771251e-06
6.2513445e-05
8.2120519e-05
9.135371e-05
9.301426e-05
9.3248186e-05
0.00011250871
0.00015333262
0.00018697382
0.00019312138
0.00017476237
0.00014132595
0.00010231102
6.8032475e-05
5.264202e-05
5.8673492e-05
6.2927422e-05
5.5383108e-05
4.4454569e-05
3.9569701e-05
3.8905563e-05
3.7274057e-05
3.2739244e-05
2.6750256e-05
2.1055101e-05
1.6663329e-05
1.3196886e-05
1.1448771e-05
4.0804949e-05
4.8006567e-05
5.3579262e-05
6.6381832e-05
9.5508101e-05
0.00015223787
0.00022008637
0.00025234429
0.00024868968
0.00021929984
0.00017089591
0.00011848341
7.4206435e-05
4.5982643e-05
3.533782e-05
3.7119031e-05
3.9076898e-05
4.628975e-05
5.8224748e-05
6.6135372e-05
6.4326759e-05
5.4328154e-05
4.1583062e-05
3.0207491e-05
2.2162412e-05
1.6994952e-05
1.4913037e-05
2.5587213e-05
3.1972956e-05
3.0745443e-05
3.8916884e-05
6.3709229e-05
0.00011437068
0.00019388462
0.00026951899
0.00029035989
0.000283588
0.00024641286
0.0001838537
0.00011902225
7.8368842e-05
5.0033547e-05
3.0874492e-05
2.666622e-05
4.2272458e-05
6.5924949e-05
8.8552151e-05
9.9839605e-05
9.5121549e-05
7.7362778e-05
5.5813862e-05
3.7504931e-05
2.5508604e-05
1.8200344e-05
1.5409667e-05
1.8912467e-05
2.5370048e-05
2.4362388e-05
3.5928452e-05
6.5571015e-05
0.00011826576
0.00019588988
0.00026592106
0.00028591247
0.00027983575
0.00023234702
0.00016316926
9.8309781e-05
6.8526902e-05
0.00025271722
3.3950105e-05
3.4180635e-05
4.8342346e-05
7.9409118e-05
0.00010786727
0.00012002253
0.00011238723
8.7641115e-05
5.9933455e-05
3.8912976e-05
2.6795932e-05
1.9182549e-05
1.5525178e-05
1.9881589e-05
1.8209265e-05
2.1554351e-05
3.2569063e-05
5.6839275e-05
9.5426989e-05
0.00014831301
0.00020034124
0.000223455
0.00020902093
0.00016470144
0.00011174754
7.3214092e-05
5.5872976e-05
9.4425946e-05
6.2536813e-05
5.1940894e-05
5.1088722e-05
7.5248523e-05
0.00010210496
0.00011194116
0.00010208603
7.6753466e-05
5.2398123e-05
3.8017832e-05
3.0486421e-05
2.3507389e-05
1.7549631e-05
2.3497488e-05
1.6641816e-05
1.8811311e-05
2.540029e-05
3.9825826e-05
6.2236449e-05
9.0915294e-05
0.00011688954
0.0001282706
0.00011850456
9.382397e-05
7.8536953e-05
8.6645332e-05
0.00010401489
0.00011223466
0.00010069823
7.9946721e-05
5.8906862e-05
6.0160176e-05
7.5621839e-05
8.0630956e-05
7.0952782e-05
5.4782745e-05
4.4766276e-05
4.4141472e-05
4.3007755e-05
3.4541349e-05
2.1524054e-05
3.2286711e-05
1.4520509e-05
1.4132909e-05
1.7607192e-05
2.4243854e-05
3.4530148e-05
4.7027018e-05
5.7617975e-05
6.2047771e-05
6.1827721e-05
6.7653569e-05
9.3628387e-05
0.00013317263
0.00016630955
0.00017684183
0.00015537393
0.00011723778
7.8202915e-05
5.3021983e-05
4.8884725e-05
4.8554846e-05
4.35643e-05
4.0503985e-05
4.6989133e-05
6.0855165e-05
6.6965187e-05
5.4458435e-05
3.105139e-05
1.0923282e-05
1.0252216e-05
1.350566e-05
1.6999399e-05
2.1360603e-05
2.6448358e-05
3.1110322e-05
3.620676e-05
4.7870749e-05
7.6940105e-05
0.00012224109
0.00017633134
0.00022363229
0.00024219045
0.0002130738
0.00015682441
0.00010248052
5.9405317e-05
3.7120635e-05
3.0895665e-05
3.038195e-05
3.6722383e-05
5.4088448e-05
7.9181289e-05
9.6700456e-05
7.9753095e-05
4.1117643e-05
9.4060878e-06
1.2041591e-05
1.5416436e-05
1.9276723e-05
2.3141843e-05
2.6764175e-05
3.2910212e-05
4.9383272e-05
8.3053174e-05
0.00013552047
0.00020290007
0.00025984304
0.00028703466
0.00025902541
0.00018963796
0.00012208022
6.9612504e-05
3.6253675e-05
2.5508469e-05
2.6621133e-05
3.6334518e-05
5.4301134e-05
8.0563844e-05
0.00010473128
9.1707509e-05
3.0825018e-05
9.8910158e-06
1.2180138e-05
1.6559729e-05
2.2317e-05
2.8501302e-05
3.2867043e-05
3.6843638e-05
4.9087678e-05
7.7418444e-05
0.00012918689
0.00020391108
0.00027049855
0.0003007029
0.00027652341
0.00020399966
0.00012970844
7.3604348e-05
3.7184224e-05
2.4636668e-05
2.6985675e-05
3.6810048e-05
4.7352558e-05
5.1751571e-05
4.7187326e-05
3.9907286e-05
6.6006317e-05
4.0185864e-05
1.3346571e-05
1.8777353e-05
2.7384903e-05
3.7932274e-05
4.5243881e-05
4.7614357e-05
5.5762824e-05
7.1069813e-05
0.00010707059
0.00017320689
0.00024947687
0.00028593437
0.00026028231
0.00019153309
0.00012177496
6.91109e-05
3.5351065e-05
2.4167036e-05
2.8324973e-05
3.9639196e-05
5.0709616e-05
5.0660223e-05
3.7460252e-05
2.4117015e-05
1.9968461e-05
2.0567479e-05
3.1110311e-05
4.7123005e-05
6.0553331e-05
6.4174831e-05
7.7249589e-05
8.0188762e-05
8.7715042e-05
0.00012215224
0.00017927191
0.00021776495
0.00020313883
0.00015296484
9.9921188e-05
5.7541779e-05
3.0239186e-05
2.1556593e-05
2.5235073e-05
3.3523791e-05
3.8768812e-05
3.4412736e-05
2.722557e-05
2.2085357e-05
2.9880531e-05
4.9510208e-05
7.1939495e-05
8.2646916e-05
0.00011422958
0.00010936442
8.8117715e-05
8.4706331e-05
0.00010728805
0.00013173632
0.00013026415
0.0001051349
7.2187025e-05
4.3065623e-05
2.3826969e-05
1.7491149e-05
1.9200433e-05
2.3039507e-05
2.4268909e-05
2.0869967e-05
3.3754291e-05
2.4025258e-05
4.2780664e-05
7.050878e-05
9.5853615e-05
0.00016063793
0.00014207627
9.8920527e-05
6.9877117e-05
6.4065145e-05
7.2013123e-05
7.486564e-05
6.5012285e-05
4.7607979e-05
3.0215296e-05
1.8142705e-05
1.355388e-05
1.3731786e-05
1.5504931e-05
1.4931848e-05
2.8449574e-05
3.1320776e-05
5.4566567e-05
9.1507322e-05
0.00018784962
0.00015159132
9.5725459e-05
6.0190083e-05
4.3646139e-05
4.0050725e-05
4.0511297e-05
3.7447317e-05
2.9835891e-05
2.07506e-05
1.3586144e-05
1.0618424e-05
9.8117845e-06
1.0050139e-05
2.3433146e-05
3.2377332e-05
4.4518432e-05
0.00014276534
0.00011392421
7.8113173e-05
5.0193408e-05
3.4114938e-05
2.7886381e-05
2.651361e-05
2.4352479e-05
2.0371807e-05
1.4962872e-05
9.1286571e-06
8.9008252e-06
9.4225857e-06
4.1048254e-05
6.5119473e-05
5.9207983e-05
4.1501125e-05
3.0079993e-05
2.566115e-05
2.4783364e-05
2.3361708e-05
2.1620689e-05
1.7120745e-05
1.216748e-05
1.120535e-05
8.8994894e-05
3.4631235e-05
3.4112029e-05
3.4841528e-05
3.785907e-05
5.4142948e-05
2.3242897e-05
1.9601771e-05
2.1463182e-05
2.1910622e-05
2.3397203e-05
2.8303658e-05
4.8729417e-05
0.00011170691
2.9122524e-05
1.3718317e-05
1.3265374e-05
1.5309861e-05
1.9568078e-05
2.3122569e-05
2.4706241e-05
2.7424484e-05
4.1816003e-05
8.8013221e-05
0.00015149697
0.00019113459
7.3161145e-05
7.2294862e-05
6.7009254e-05
1.8420798e-05
1.6956485e-05
1.5946329e-05
1.6139424e-05
1.7835927e-05
2.0834394e-05
2.4661133e-05
2.772105e-05
3.0959916e-05
4.4737839e-05
9.0961865e-05
0.00017661041
0.00023184383
0.0001067465
6.7569049e-05
3.2917298e-05
4.6266988e-05
2.6837424e-05
2.5884767e-05
2.34268e-05
2.0842071e-05
2.0024126e-05
2.1342209e-05
2.4793377e-05
3.1279946e-05
3.8342143e-05
4.153362e-05
5.0087621e-05
8.4302132e-05
0.00014872872
0.00018338082
0.00010842372
8.8656932e-05
5.0283916e-05
2.9633413e-05
4.7977404e-05
4.109834e-05
4.4381388e-05
4.0893637e-05
3.3878453e-05
2.7615731e-05
2.4901186e-05
2.5739891e-05
3.0815135e-05
4.3266235e-05
5.8303969e-05
6.2761206e-05
5.9680034e-05
7.1474251e-05
0.00010479766
0.00012169268
9.1217117e-05
8.7965058e-05
5.8132182e-05
3.2984124e-05
2.6368975e-05
8.6992852e-05
6.9061223e-05
7.8843684e-05
7.4538154e-05
6.1068615e-05
4.6567071e-05
3.6005336e-05
3.1633107e-05
3.1604272e-05
3.8334889e-05
5.9394703e-05
8.5565418e-05
9.5168082e-05
8.2380569e-05
6.8679146e-05
7.1901739e-05
7.7751773e-05
6.9943464e-05
7.1787848e-05
5.5305321e-05
3.5145211e-05
2.2996184e-05
2.4353873e-05
9.5895648e-05
0.00012585547
0.00012442852
0.00010282878
7.7327334e-05
5.6768402e-05
4.5692214e-05
4.2139899e-05
4.0529944e-05
4.6667115e-05
7.5145969e-05
0.00011242229
0.00012670192
0.00011175846
8.226706e-05
6.1508892e-05
5.3850345e-05
5.0694414e-05
5.2334317e-05
4.4362495e-05
3.1475646e-05
2.1461068e-05
1.6044922e-05
3.9844714e-05
5.6578136e-05
0.00016803672
0.00017868219
0.00014981739
0.00011321455
8.2573156e-05
6.5158099e-05
6.1019988e-05
6.0359445e-05
5.5215832e-05
5.4516638e-05
8.3351555e-05
0.00012819145
0.00014313139
0.00012850846
9.7314635e-05
6.5887965e-05
4.6613582e-05
3.8450611e-05
3.6742455e-05
3.280642e-05
2.5712254e-05
1.9186672e-05
1.4575374e-05
1.3930026e-05
0.0002715644
0.00034569296
0.00028919095
0.00020120022
0.00013231311
9.366389e-05
8.5271702e-05
9.0055019e-05
8.9789035e-05
7.8306589e-05
6.4461406e-05
7.7490042e-05
0.00011890563
0.0001381851
0.00012582699
9.9128103e-05
6.8947817e-05
4.6273675e-05
3.406655e-05
2.9099964e-05
2.5824689e-05
2.1946089e-05
1.7914467e-05
1.4272397e-05
1.1563633e-05
1.9845706e-05
0.0002723161
0.00022169936
0.00026349389
0.00022581075
0.00016355258
0.00011752054
0.00010962751
0.00012457308
0.00013488404
0.00012896923
0.0001088469
8.1956125e-05
6.8765267e-05
8.8156029e-05
0.00010834975
0.00010447211
8.5154724e-05
6.186683e-05
4.403333e-05
3.4244311e-05
2.9735523e-05
2.6437477e-05
2.3006053e-05
1.9415198e-05
1.5955152e-05
1.2381362e-05
1.0877149e-05
0.00012477822
0.00013748701
0.00014070731
0.00012632975
0.00010927096
0.00011824905
0.00015527239
0.00018602149
0.000189973
0.00017315279
0.00014283598
0.00010463005
7.1313908e-05
6.0347881e-05
6.8064749e-05
7.0598852e-05
6.1242338e-05
4.9778208e-05
4.4865334e-05
4.4116584e-05
4.218074e-05
3.7298776e-05
3.0923517e-05
2.4847427e-05
2.0026132e-05
1.6294053e-05
1.5445679e-05
8.4862285e-05
7.4215688e-05
7.0415861e-05
7.5860066e-05
0.00010025561
0.00015985414
0.00022811629
0.0002506416
0.00024132661