/*--------------------------------*- C++ -*----------------------------------*\
| =========                 |                                                 |
| \\      /  F ield         | OpenFOAM: The Open Source CFD Toolbox           |
|  \\    /   O peration     | Version:  2406                                  |
|   \\  /    A nd           | Website:  www.openfoam.com                      |
|    \\/     M anipulation  |                                                 |
\*---------------------------------------------------------------------------*/
FoamFile
{
    version     2.0;
    format      ascii;
    arch        "LSB;label=32;scalar=64";
    class       volScalarField;
    location    "200";
    object      k;
}
// * * * * * * * * * * * * * * * * * * * * * * * * * * * * * * * * * * * * * //

dimensions      [0 2 -2 0 0 0 0];

internalField   nonuniform List<scalar> 
150387
(
0.00011830312
2.4733762e-05
2.1679478e-05
2.1035602e-05
2.2390975e-05
1.9396071e-05
1.610151e-05
2.6498712e-05
3.6434418e-05
1.9022062e-05
1.9885118e-05
2.2616314e-05
2.7692954e-05
3.2415567e-05
3.2047321e-05
3.7904254e-05
4.3796677e-05
5.7674312e-05
8.4911569e-05
0.00011328614
4.7330478e-05
2.0046024e-05
2.6671281e-05
3.2921974e-05
3.3728644e-05
3.1699418e-05
3.0664069e-05
3.3061653e-05
3.5243937e-05
4.6209926e-05
5.9218515e-05
7.8072065e-05
0.00011007548
0.00014634329
9.0784613e-05
4.2986575e-05
1.4066147e-05
4.3655434e-05
2.6687151e-05
3.9491885e-05
4.5727109e-05
4.4826614e-05
4.0593244e-05
3.6203039e-05
3.4344509e-05
3.9732291e-05
4.9367264e-05
5.8917388e-05
6.9330215e-05
8.5195093e-05
0.00010932949
0.0001399033
9.9012088e-05
7.7168998e-05
5.2536064e-05
1.9594606e-05
5.0656935e-05
3.0896297e-05
5.1366798e-05
5.8744201e-05
5.7365137e-05
5.2442689e-05
4.6854225e-05
4.1571089e-05
4.0019149e-05
5.5868152e-05
8.2985567e-05
9.4445767e-05
8.7625347e-05
8.8147135e-05
9.9604777e-05
0.00011436427
9.1991366e-05
8.6991725e-05
7.0586136e-05
4.3834385e-05
1.8593825e-05
3.7980314e-05
6.4846637e-05
7.4306192e-05
7.2164115e-05
6.6277656e-05
6.0345231e-05
5.4749936e-05
4.7785178e-05
4.6922772e-05
7.9330023e-05
0.00013346672
0.00016021005
0.00013885491
0.00010819983
9.5837807e-05
9.6859293e-05
8.2856096e-05
8.2243939e-05
7.3693606e-05
5.7126083e-05
3.4278182e-05
1.6506832e-05
3.3849701e-05
7.6735892e-05
9.2352898e-05
9.0191328e-05
8.2884274e-05
7.6759214e-05
7.47851e-05
7.097212e-05
6.0047762e-05
5.3431227e-05
0.00010019705
0.00018737835
0.00023770815
0.00021697177
0.00015927253
0.00011102629
9.0897127e-05
7.6124605e-05
7.3632479e-05
6.8069229e-05
5.8229235e-05
4.4089833e-05
2.4070248e-05
1.6085704e-05
2.378775e-05
8.2138818e-05
0.00010861027
0.00010869146
9.9891461e-05
9.3272797e-05
9.6364775e-05
0.00010623655
0.0001041547
8.4710419e-05
6.1918386e-05
0.00010297487
0.00021341646
0.00028621037
0.00027570219
0.0002131184
0.00014221883
9.6131038e-05
7.2272618e-05
6.5272939e-05
6.0260064e-05
5.3933741e-05
4.4964749e-05
3.1926463e-05
1.5196112e-05
0.00011011539
0.00016267447
0.00016590751
0.00014171737
0.00012258578
0.00011936068
0.00014388829
0.00016831753
0.00016252452
0.00012995327
8.6448619e-05
8.3657797e-05
0.00018431137
0.00026675851
0.00027102644
0.00022126937
0.00015450406
0.00010045964
6.9657363e-05
5.7704887e-05
5.219169e-05
4.7744313e-05
4.1469694e-05
3.3176369e-05
2.066427e-05
1.3763974e-05
0.00011156594
0.00015035695
0.00015181391
0.00013642903
0.00012792872
0.00016204607
0.00022880438
0.00026166958
0.00024475108
0.00019411079
0.00013070738
7.7947752e-05
0.00011511283
0.00019174566
0.00021088085
0.00018029338
0.00013017488
8.631619e-05
6.0609837e-05
5.0534332e-05
4.5793622e-05
4.2040119e-05
3.6783123e-05
3.1747776e-05
2.2792376e-05
9.8464864e-06
2.4412337e-05
7.9699777e-05
0.00011063454
0.00011934519
0.00012054587
0.00015500245
0.00025845061
0.00035221973
0.00038045371
0.00034351999
0.00026863699
0.00018341607
0.0001069127
6.5319946e-05
9.8955994e-05
0.0001268238
0.00011485617
8.4649479e-05
6.1458908e-05
5.6755186e-05
5.7908791e-05
5.3567551e-05
4.586452e-05
3.7147868e-05
3.1150129e-05
2.3699516e-05
1.4780785e-05
2.6504881e-05
5.8499802e-05
8.3265523e-05
9.8205402e-05
0.0001293553
0.00023733193
0.00038525956
0.00049184967
0.00050830666
0.00044385063
0.00033784417
0.00022740218
0.00013166861
6.8229645e-05
4.145153e-05
5.4749455e-05
5.6080853e-05
5.6264573e-05
8.218406e-05
0.00010897863
0.0001142264
9.8724385e-05
7.4783255e-05
5.1789713e-05
3.632177e-05
2.6765024e-05
2.2259371e-05
7.129151e-06
2.8973512e-05
5.0177033e-05
6.757289e-05
9.3627769e-05
0.00018305573
0.00033602011
0.00049742779
0.0006111451
0.00060682081
0.00051375525
0.00037836661
0.00024451157
0.00013093719
5.7279987e-05
2.5480039e-05
2.1108426e-05
4.0732673e-05
9.0447093e-05
0.00015110601
0.0001930366
0.00019471433
0.00016314145
0.00011833316
7.5422528e-05
4.720606e-05
3.240058e-05
2.5077496e-05
8.6762601e-06
2.8201517e-05
4.3235737e-05
5.8463614e-05
0.00010770494
0.0002189416
0.00036961375
0.00052441351
0.00061901889
0.00059903572
0.00049308548
0.00034974846
0.00021012306
8.8275512e-05
3.7178998e-05
1.0276868e-05
2.730129e-05
4.8825379e-05
0.00012426465
0.00020713668
0.00026136429
0.00025661825
0.00020833513
0.00014443614
8.8929147e-05
5.7509323e-05
4.2801333e-05
3.1838441e-05
1.4706185e-05
2.1881773e-05
3.6646818e-05
5.2892994e-05
0.00010153061
0.00019482529
0.000314676
0.00043228934
0.00049863931
0.00047289376
0.00037630235
0.00024915281
0.00012326723
5.4114217e-05
3.9444218e-05
6.4161187e-05
6.1923774e-05
5.1949069e-05
0.00012036839
0.00021233808
0.00026984753
0.00025904638
0.00020075087
0.00013281826
8.4129301e-05
6.4692912e-05
5.2345548e-05
3.7299316e-05
1.7313785e-05
1.6818205e-05
3.103842e-05
3.9027098e-05
6.7955081e-05
0.00012685123
0.0002047693
0.00027919461
0.00031384829
0.00029019436
0.00021439389
0.00011563355
8.4738561e-05
0.00013680987
0.00016222833
0.0001545584
0.00012039365
7.7671518e-05
8.3794406e-05
0.00015679886
0.00020382738
0.0001926233
0.00014627221
0.00010255884
8.0423912e-05
7.5239836e-05
6.4607472e-05
4.1244716e-05
2.2387279e-05
7.7436641e-06
2.4271691e-05
2.9676752e-05
4.0367902e-05
6.2142433e-05
9.592205e-05
0.00013084533
0.00014410689
0.00012280425
7.8593729e-05
0.00010456908
0.00019600009
0.00027631264
0.00030225673
0.00027465844
0.00020868678
0.00013289987
7.3691012e-05
8.9745528e-05
0.00012038036
0.00011740782
9.8284975e-05
8.5644122e-05
8.5460795e-05
9.040201e-05
8.4787004e-05
4.7004753e-05
3.4276795e-05
7.1528979e-06
1.7823393e-05
2.8632791e-05
3.3981561e-05
4.0068869e-05
4.7371868e-05
5.3085892e-05
5.4335445e-05
5.938829e-05
0.00010407879
0.00019950929
0.00031477078
0.00041720738
0.00045287302
0.00040542452
0.00030825284
0.00020173031
0.00010824326
5.883764e-05
6.8959157e-05
7.4952175e-05
7.6435e-05
8.2177193e-05
9.3524576e-05
0.00011045003
0.00011272146
5.1231172e-05
1.4700065e-05
2.9555517e-05
3.6584387e-05
4.3111762e-05
4.7510698e-05
5.134722e-05
5.8187146e-05
8.3308278e-05
0.00015004853
0.00026616151
0.00040629081
0.00053953133
0.00059207495
0.00052966756
0.00040031987
0.00026522379
0.00014827496
6.6027828e-05
5.2020504e-05
6.0609158e-05
6.959254e-05
8.0605833e-05
9.7825557e-05
0.00012118826
0.00012607571
5.2145609e-05
1.3872756e-05
2.6394235e-05
3.9929604e-05
4.9753182e-05
5.5925044e-05
6.0903175e-05
6.714021e-05
9.0804918e-05
0.00015407232
0.00027734149
0.0004363233
0.00059252489
0.00066564189
0.00060144163
0.00045582539
0.00030236539
0.00017194026
7.5530954e-05
4.9686161e-05
5.6884292e-05
6.6191943e-05
7.5864602e-05
8.2865999e-05
7.6372469e-05
4.5018106e-05
1.4264215e-05
1.9426058e-05
3.9292771e-05
5.4429188e-05
6.4708672e-05
7.1803433e-05
7.5607014e-05
9.0639831e-05
0.0001261126
0.00021848723
0.00036880656
0.0005259167
0.00060804321
0.00056300811
0.00043422613
0.00029186543
0.00016724623
7.4089398e-05
4.9952824e-05
5.7276227e-05
6.8327835e-05
8.2348027e-05
9.2497248e-05
7.9874684e-05
3.0011812e-05
1.868018e-05
3.0854793e-05
5.442087e-05
7.2035026e-05
8.3614341e-05
8.5512488e-05
9.7707411e-05
0.00011172574
0.00014549533
0.00024402076
0.00038953203
0.00047140546
0.000449877
0.00035551248
0.00024204271
0.00013733836
6.1945358e-05
4.6782113e-05
5.31116e-05
6.2694751e-05
7.1969318e-05
6.7357552e-05
4.1527282e-05
1.1277416e-05
2.0586602e-05
4.2468604e-05
7.2532675e-05
9.2945974e-05
9.5578499e-05
0.00011380254
0.00012133141
0.00011892083
0.00014579302
0.00023534788
0.00030996613
0.00031130704
0.00025467446
0.00017618895
9.8705636e-05
4.8807501e-05
4.168229e-05
4.6335661e-05
5.1766169e-05
5.0637729e-05
3.2834585e-05
1.1427574e-05
2.1475841e-05
5.5240342e-05
9.0378278e-05
0.00010026674
0.00014228749
0.0001433422
0.00012221542
0.00011010915
0.00012441536
0.0001702836
0.00018541362
0.00015902075
0.00011206186
6.2877535e-05
3.6777698e-05
3.4185873e-05
3.5922351e-05
3.5196307e-05
2.5296669e-05
1.1350976e-05
2.3979468e-05
6.1542515e-05
8.6793947e-05
0.000173741
0.00016774554
0.00012952574
0.00010270065
8.7951229e-05
8.7218083e-05
9.5271842e-05
8.6694682e-05
6.3721642e-05
3.95608e-05
2.9227128e-05
2.751828e-05
2.321898e-05
1.5062031e-05
1.0720677e-05
1.0887366e-05
4.1877519e-05
0.00015334069
0.00015222933
0.00011672492
8.5753994e-05
6.8068489e-05
5.8298482e-05
5.2974573e-05
4.7130133e-05
3.6978271e-05
2.558739e-05
1.83036e-05
1.5284829e-05
9.8765834e-06
1.117585e-05
4.2373828e-05
5.4361581e-05
5.7381369e-05
5.0286814e-05
4.4525117e-05
4.3586574e-05
4.2838802e-05
3.8165891e-05
2.8166838e-05
1.7402205e-05
8.7679759e-06
7.1567784e-06
3.7602909e-05
2.3624204e-05
2.1508677e-05
2.2167765e-05
1.8955587e-05
1.9374666e-05
2.9518241e-05
2.4612551e-05
3.2467093e-05
4.4093639e-05
4.2217707e-05
4.2825944e-05
3.5332541e-05
3.2097295e-05
3.1730418e-05
3.1562142e-05
3.8943376e-05
4.4069633e-05
5.0317822e-05
6.1029319e-05
7.0311531e-05
7.450328e-05
7.6578244e-05
7.6839944e-05
8.594974e-05
9.7147885e-05
0.00010557991
5.4877852e-05
1.9181637e-05
3.1902976e-05
4.4859219e-05
5.7157761e-05
6.3277688e-05
6.4754312e-05
6.4187937e-05
6.704101e-05
7.6900903e-05
8.8505489e-05
9.7435934e-05
0.0001051444
0.00012325851
0.00015232291
0.00016837936
0.00011590109
6.344596e-05
3.155644e-05
3.2058583e-05
5.9019634e-05
7.6404346e-05
8.341595e-05
8.2772741e-05
7.8444261e-05
7.3870009e-05
7.6658615e-05
9.4431261e-05
0.00011730565
0.00012798386
0.00013401721
0.00014944549
0.00017480295
0.00018518048
0.00013895722
0.00010864861
7.029246e-05
3.2362955e-05
3.3049792e-05
7.1437998e-05
9.6926545e-05
0.00010694776
0.00010479044
9.8506229e-05
9.1056615e-05
8.5016027e-05
9.2540034e-05
0.00012773524
0.00017003627
0.00018272629
0.00017058972
0.000165576
0.00017466086
0.00017471015
0.00014451103
0.00013366717
0.0001035981
6.7149728e-05
3.1342715e-05
3.5965694e-05
8.0895941e-05
0.00011736933
0.00013490837
0.00013500131
0.00012659871
0.00011727852
0.00010786882
9.8903965e-05
0.00011083851
0.00016833308
0.00023685862
0.00026184496
0.00023347436
0.0001932695
0.00017211281
0.00015973996
0.00013956118
0.00013627591
0.0001175916
8.8704528e-05
5.5945264e-05
2.6903371e-05
7.8079249e-05
0.00013093227
0.00016035036
0.00016620105
0.00016022897
0.0001521103
0.00014622975
0.00013748215
0.00012164755
0.00012735033
0.00020147723
0.0002987221
0.00034312534
0.0003103603
0.000242776
0.00018548566
0.00015229521
0.00013095341
0.00012573916
0.000114006
9.4390897e-05
6.9877091e-05
4.0373689e-05
2.5746329e-05
3.813731e-05
0.00014305272
0.00018067934
0.00019166572
0.00018911937
0.00018549899
0.00018990719
0.00019657531
0.00018903035
0.00016118136
0.00014276179
0.00020947362
0.00032440158
0.00038430373
0.0003592085
0.00028534505
0.00020825376
0.00015400488
0.00012357163
0.00011305063
0.00010364669
9.06435e-05
7.3787255e-05
5.1051195e-05
2.6695692e-05
0.00012985202
0.00021112765
0.00024096104
0.00023908834
0.0002310888
0.00023694723
0.00026196035
0.0002793696
0.00026626865
0.00022292595
0.00017033048
0.00018768847
0.00028737815
0.00035591469
0.00034557596
0.00028531523
0.00021226319
0.00015271131
0.00011681584
0.00010210941
9.3289814e-05
8.4158407e-05
7.2100373e-05
5.6184363e-05
3.3993035e-05
2.1081851e-05
4.1712026e-05
0.00011970114
0.00019093634
0.00022749404
0.00024190879
0.00025795039
0.00030856224
0.00036619028
0.00038745691
0.00036110307
0.00029910254
0.00022054802
0.00016901166
0.00021003889
0.00027201546
0.00027942421
0.00024042685
0.00018399816
0.0001365824
0.00010955255
9.8174582e-05
9.0098685e-05
8.102784e-05
7.0080784e-05
5.8593002e-05
4.0397358e-05
1.9345844e-05
4.3554334e-05
0.00010827062
0.00015646976
0.00020022316
0.00023962416
0.00031367808
0.00041844701
0.00049744405
0.00051093777
0.00046314798
0.00037713986
0.00027629892
0.00018463116
0.00014426441
0.00017009518
0.00018844164
0.00017022553
0.00014036756
0.00012816648
0.00013018514
0.00012792498
0.00011480721
9.6137698e-05
7.7731304e-05
6.3865094e-05
4.9995374e-05
3.3688389e-05
4.4760663e-05
9.7033648e-05
0.00013644366
0.00018858605
0.00027220606
0.00040605046
0.00054867053
0.00063073934
0.0006270288
0.00055353818
0.00043894932
0.00031357533
0.00020130034
0.00012171417
9.2778684e-05
0.00010394268
0.00011406586
0.00014193229
0.00018342898
0.00021045916
0.00020794282
0.00018023897
0.00014168411
0.00010460784
7.8075852e-05
6.0947363e-05
4.7260135e-05
1.2876369e-05
5.0737935e-05
9.1690498e-05
0.00012894252
0.00019947785
0.000324659
0.0004904409
0.0006442228
0.00071216
0.00069154589
0.00059828073
0.00045900674
0.00031239708
0.00020439472
0.00010935554
6.1606371e-05
6.611166e-05
0.00012177329
0.00019949632
0.00026754368
0.00030326957
0.00029321813
0.00024682625
0.00018723234
0.00013228054
9.4509372e-05
7.0126349e-05
5.4369666e-05
1.915149e-05
5.5865953e-05
8.4312067e-05
0.00012649728
0.00020933001
0.00033830536
0.00049890912
0.00064051382
0.00069645024
0.00066295797
0.00055467208
0.00040711196
0.00025640935
0.00016469426
6.3841109e-05
2.6430652e-05
8.6544827e-05
0.00013936245
0.00023705311
0.00032085425
0.00036092701
0.00034204105
0.00027799577
0.00020313608
0.00014157929
0.00010388794
7.7105152e-05
5.1721164e-05
2.3515873e-05
3.973097e-05
7.8116571e-05
0.0001139575
0.00018461572
0.00028734501
0.00040765078
0.00051234444
0.00055318579
0.00051330931
0.00041288665
0.00028654123
0.00018344822
0.00012950656
0.00010769537
0.0001222175
0.00013938428
0.00014305108
0.0002259754
0.00030968661
0.00034618929
0.00032128988
0.00025386337
0.00018495415
0.0001381007
0.00010968926
8.3105593e-05
6.2351741e-05
2.7281137e-05
3.6578395e-05
6.703846e-05
8.7641014e-05
0.00013128093
0.0001985359
0.00027512005
0.00033659928
0.00035651053
0.00032277598
0.00024867776
0.0001976629
0.00022449395
0.00027703018
0.00029779087
0.00027134842
0.00021691015
0.0001628781
0.00018111327
0.00023984902
0.00026483073
0.00024260938
0.00019672488
0.00015911108
0.00013963844
0.00012101777
9.0995827e-05
6.1120286e-05
3.215754e-05
1.9117129e-05
5.1916728e-05
6.6507264e-05
8.5176794e-05
0.00011596342
0.00015296421
0.00018207039
0.0001876019
0.0001723151
0.00017863573
0.00025246499
0.00035322337
0.00043022887
0.00044972971
0.00040191207
0.00031495706
0.00021868701
0.0001556199
0.00016296556
0.00017623233
0.00016711134
0.00015275501
0.0001486881
0.0001517608
0.00014166424
0.00010358873
6.071755e-05
1.4067121e-05
4.1757931e-05
6.0983076e-05
7.3028354e-05
8.5946115e-05
9.8185812e-05
0.00010781614
0.00011654444
0.00014893247
0.00022823692
0.00034441186
0.00046877219
0.00056823994
0.00059539697
0.00052973147
0.00041266794
0.00028695461
0.00017599194
0.00012297912
0.00012204594
0.00012623509
0.00013382001
0.00014869197
0.00016477858
0.0001627145
0.00011514694
5.6952417e-05
3.4958943e-05
5.8752581e-05
7.5872926e-05
8.9566869e-05
0.00010003414
0.00010903936
0.00012469265
0.00017144623
0.000263701
0.00039385717
0.00054218785
0.00066369198
0.00070391937
0.00063111208
0.00049024707
0.00034194943
0.00020980673
0.00012119433
0.00010357868
0.00011237961
0.00012682633
0.00014483673
0.00016025861
0.0001581798
0.00011182649
3.6243767e-05
2.2420495e-05
5.3125523e-05
7.8345781e-05
9.7986868e-05
0.00011345748
0.00012423665
0.00013688543
0.00017612545
0.00025679651
0.00038641786
0.00054752754
0.00068688231
0.00073871341
0.00067206709
0.00052397494
0.00036547008
0.00022572448
0.00012616903
0.00010119496
0.00011036186
0.00012504796
0.00013516099
0.00012654357
9.7468573e-05
7.4737421e-05
2.782051e-05
2.6466912e-05
4.2082646e-05
7.4801708e-05
0.0001034525
0.00012713898
0.0001415934
0.00015021144
0.0001785954
0.00022879902
0.0003273493
0.00047351337
0.00061992218
0.0006854971
0.00062953636
0.00049579834
0.00034795891
0.00021556197
0.00012217921
0.00010092344
0.0001121686
0.00012896247
0.00013741748
0.00011487166
6.2149084e-05
3.3430079e-05
2.5153245e-05
6.027681e-05
9.8222392e-05
0.00013254512
0.00015617485
0.00016480367
0.0001922254
0.00021554894
0.00025791201
0.00035267459
0.00047231075
0.00054075977
0.0005104703
0.00041197374
0.00029372999
0.00018248106
0.00010703353
9.2850611e-05
0.00010292807
0.00011548196
0.00011372395
8.2462615e-05
5.4057779e-05
2.991889e-05
7.4538867e-05
0.00011696508
0.00015401285
0.00017416576
0.00021366523
0.0002238319
0.00022192289
0.00024859248
0.00031499558
0.00036905369
0.00036324011
0.00030480145
0.00022211917
0.00013966944
8.7732037e-05
7.9576255e-05
8.4990286e-05
8.746089e-05
7.3819163e-05
5.4468177e-05
2.2419463e-05
3.3569105e-05
7.9146497e-05
0.0001252385
0.00016945882
0.0002280344
0.000226689
0.0002036897
0.00019036981
0.00020191367
0.0002285906
0.00023356747
0.00020407987
0.00015290028
9.9606314e-05
6.9077137e-05
6.3558212e-05
6.2104188e-05
5.4237233e-05
4.3869239e-05
2.1193757e-05
3.4851627e-05
7.32531e-05
0.00014053963
0.00020703284
0.00019437983
0.00016484257
0.00014536247
0.00013871612
0.00014033827
0.00014077971
0.00012733282
0.0001002867
7.0644964e-05
5.2918098e-05
4.6266818e-05
3.380671e-05
2.9264349e-05
1.8118981e-05
2.1812076e-05
6.3127289e-05
0.00012809574
0.00011820894
0.00010936602
0.0001031581
9.845832e-05
9.6019379e-05
9.2379948e-05
8.3501861e-05
6.7328649e-05
4.7726651e-05
2.9308093e-05
3.1153539e-05
1.7457067e-05
3.2107045e-05
5.1691316e-05
6.611492e-05
7.1368471e-05
7.2226116e-05
7.6101717e-05
7.689541e-05
7.081086e-05
5.433416e-05
3.6723245e-05
1.5542757e-05
9.8023871e-06
4.1324522e-05
3.472124e-05
3.3561496e-05
3.3661406e-05
3.1669062e-05
3.2292282e-05
2.9056454e-05
4.1388552e-05
6.3192187e-05
6.0542312e-05
5.7418604e-05
4.7570486e-05
4.6021185e-05
5.2554181e-05
3.5603091e-05
5.0549908e-05
5.9132015e-05
6.9274887e-05
8.3525643e-05
9.495533e-05
0.00010015694
9.8681267e-05
9.1105705e-05
9.9779154e-05
0.00012155666
0.0001440602
6.0949875e-05
3.2011511e-05
3.851808e-05
5.4971352e-05
7.1212724e-05
7.9727772e-05
8.3860736e-05
8.6379395e-05
9.2060264e-05
0.0001042553
0.00011734027
0.00012321424
0.00012259237
0.00013784901
0.00018278993
0.00021306451
0.00013607494
7.4128918e-05
3.6936615e-05
3.6752568e-05
7.0273502e-05
9.2588444e-05
0.00010272693
0.00010387115
0.00010161164
9.9633986e-05
0.00010512887
0.00012589995
0.00015127978
0.00016153812
0.00016323236
0.00017455533
0.00020681914
0.00022204921
0.0001627683
0.00012379974
7.8383431e-05
3.7954385e-05
3.6588951e-05
8.0457747e-05
0.00011297168
0.00012894399
0.00012995368
0.00012400163
0.00011747203
0.00011391731
0.00012495224
0.00016404231
0.00020980879
0.00022362101
0.00020955066
0.00020130444
0.00020904719
0.00020842612
0.00017295287
0.00015601855
0.00011817361
7.8102346e-05
3.8497159e-05
4.2853892e-05
9.180936e-05
0.00013401679
0.00015959863
0.00016461656
0.00015716743
0.00014629549
0.00013685438
0.00013081028
0.00014767328
0.00021030935
0.00028233869
0.00030820505
0.00027792813
0.0002335002
0.00020891328
0.00019322822
0.00017190881
0.00016565682
0.00014147515
0.00010683232
7.0691675e-05
3.3638673e-05
9.2019632e-05
0.00015195899
0.00018771061
0.00019913976
0.00019450474
0.00018436773
0.00017594962
0.00016751209
0.00015572561
0.00016874321
0.00024943097
0.00034684096
0.00038736456
0.00035481249
0.00028360607
0.00022198353
0.0001857041
0.00016395271
0.00015791471
0.00014251283
0.00011718955
8.8156753e-05
5.226022e-05
3.189002e-05
4.7858532e-05
0.00017040124
0.00021332102
0.00022647107
0.00022518449
0.00021988149
0.00021997736
0.00022454329
0.00021934358
0.00019636864
0.00018751809
0.00026334346
0.00037581469
0.00042508827
0.00039885044
0.00032495894
0.00024386909
0.00018655206
0.00015521151
0.00014362376
0.00013197796
0.00011476235
9.3701018e-05
6.6648489e-05
3.6635724e-05
0.00018334773
0.00027782645
0.00029397027
0.00028029199
0.00026622698
0.00026722074
0.00028727729
0.00030558894
0.00029739365
0.0002586742
0.00021432585
0.00024386189
0.0003443236
0.00040286958
0.00038703924
0.00032572496
0.00024885465
0.00018563702
0.00014790732
0.00013170917
0.00012105228
0.00010895929
9.3610787e-05
7.3732992e-05
4.6532397e-05
2.4470349e-05
6.8990002e-05
0.00015585228
0.00023451558
0.00026791289
0.00028014622
0.00029457879
0.00033705045
0.00039005429
0.00041318445
0.00039236547
0.000335595
0.00026095386
0.0002200628
0.00026645879
0.00032325675
0.00032499092
0.00028234305
0.00022224956
0.0001720147
0.00014293928
0.0001295243
0.00011938536
0.00010782826
9.4026013e-05
7.8763154e-05
5.6466149e-05
2.6543441e-05
6.7539074e-05
0.000130066
0.0001759606
0.00022672588
0.00027557168
0.0003486209
0.00044822204
0.00051997254
0.00053146013
0.00049090941
0.00041339379
0.00031599606
0.00022663788
0.00019228199
0.00021703652
0.00023129651
0.0002108504
0.0001806757
0.00016770419
0.00016735857
0.00016287854
0.00014766687
0.00012643319
0.00010496963
8.741383e-05
6.9307856e-05
4.9337636e-05
5.9998863e-05
0.00011606599
0.00015411158
0.00021681136
0.00030793034
0.00044508948
0.00058035553
0.00064030724
0.00063270785
0.00057506965
0.00047446197
0.0003532247
0.000239268
0.00015767213
0.00013095853
0.00014069508
0.00015344805
0.00018381256
0.00022565734
0.00025196754
0.00024815264
0.00021821599
0.00017628606
0.00013546634
0.00010514062
8.4202688e-05
6.8673648e-05
2.0469421e-05
7.1246186e-05
0.00011646516
0.00015365203
0.00022953152
0.00036143287
0.00053152636
0.00066528126
0.00070200818
0.00068696902
0.00061959927
0.00049617396
0.00035124643
0.00024516448
0.00014542373
9.7885235e-05
9.9824235e-05
0.00016184175
0.00024424103
0.00031391062
0.00034732916
0.00033666503
0.00028937907
0.00022555013
0.00016519068
0.00012260119
9.3929514e-05
7.8902638e-05
2.6728385e-05
7.276189e-05
0.00010832885
0.0001533601
0.00023838027
0.00037393015
0.00053620585
0.00065901294
0.00069377079
0.00067581762
0.00058925009
0.00044875053
0.00029834443
0.00021129728
8.0306949e-05
4.9157121e-05
0.00012118194
0.0001840043
0.00028617597
0.00036742907
0.00040101937
0.00038367224
0.00032164058
0.00024287865
0.0001750173
0.00013077594
9.7992707e-05
6.7339473e-05
2.8822675e-05
5.3604783e-05
0.00010263993
0.00014074709
0.0002128434
0.00031927676
0.00044191824
0.00054362587
0.00058281952
0.00054995412
0.00045523432
0.00033320629
0.00023538725
0.00018728571
0.00014987041
0.00015739524
0.00017623252
0.00019122791
0.00027837227
0.00035743947
0.00038641206
0.00036314236
0.00029695151
0.00022355591
0.00016970562
0.0001314284
9.8804991e-05
8.3312939e-05
3.194661e-05
5.4454852e-05
9.1655186e-05
0.00011457643
0.00015956617
0.00022750407
0.0003047369
0.00036585658
0.00038705087
0.00035818878
0.00029315601
0.00025263821
0.00027453972
0.00031849492
0.00033614978
0.00030745521
0.00025317468
0.00020679077
0.00023403891
0.00029011312
0.00030963316
0.00028509902
0.00023665018
0.00019497792
0.00016768844
0.00013501185
9.6297897e-05
7.6926899e-05
3.5629674e-05
2.767202e-05
7.1539042e-05
9.0254956e-05
0.0001123541
0.00014498262
0.00018234677
0.00021113934
0.00021966419
0.00021404961
0.00022801714
0.00029883682
0.00039499851
0.00046710939
0.00048506588
0.00043703164
0.00034856606
0.00025291069
0.00020057086
0.00020916142
0.00021729954
0.00020484164
0.00018889301
0.00018306664
0.00017909753
0.00015426454
0.00010425841
6.9541565e-05
1.784253e-05
5.7945569e-05
8.1281454e-05
9.7323878e-05
0.00011328478
0.00012802977
0.00013973936
0.00015170305
0.00018676358
0.00026485366
0.00037924171
0.00049925385
0.00058839013
0.00061459473
0.0005566798
0.0004412463
0.00031419557
0.00020764148
0.00016103914
0.0001572953
0.00016000776
0.00016833531
0.0001837808
0.00019619218
0.00018271831
0.00012186803
6.1004386e-05
4.782285e-05
7.6879026e-05
9.8207271e-05
0.00011545774
0.00012930115
0.00014028976
0.00015686301
0.00020202645
0.00029109275
0.00041891379
0.00055877783
0.00065847843
0.00069516091
0.00064272537
0.00051240977
0.00036462844
0.00023305016
0.00015154197
0.00013529307
0.00014471152
0.00016109555
0.00017862528
0.00019111653
0.00018662974
0.00013298564
4.6086228e-05
2.9830178e-05
6.9824495e-05
9.9782253e-05
0.00012407116
0.00014431964
0.00015760539
0.00017049839
0.0002064542
0.00028168968
0.00040769306
0.00056235677
0.00067747143
0.00071915799
0.00067474457
0.00054268529
0.00038579671
0.0002459656
0.00015349643
0.0001314607
0.00014319029
0.00015944322
0.00016359068
0.00014576077
0.00011537228
0.00010002355
4.0457968e-05
3.0170717e-05
5.4959835e-05
9.5027951e-05
0.00012855224
0.00015834581
0.00017725685
0.00018702061
0.00021289171
0.00025944597
0.000353342
0.00049941144
0.00063783906
0.000692845
0.00064619583
0.000519366
0.00037013908
0.00023692169
0.00014939889
0.00013126115
0.00014593711
0.00016323935
0.00016113515
0.00012259286
6.6774533e-05
4.1059406e-05
3.1977357e-05
7.6752202e-05
0.00011811903
0.00015800169
0.00018801361
0.00020180285
0.00023017255
0.00025277383
0.00029174731
0.00038464735
0.00050635995
0.00057483308
0.00054404025
0.00044228387
0.00031977928
0.00020706021
0.00013482682
0.00012244475
0.00013502779
0.00014639356
0.00013455896
9.1793402e-05
6.2595839e-05
3.8328906e-05
8.6419082e-05
0.00013177048
0.00017764873
0.00020736498
0.00025408469
0.0002624966
0.00025689914
0.00028093402
0.00034629014
0.0004026005
0.00039701304
0.00033578389
0.00024959555
0.000166133
0.0001147091
0.00010599291
0.00011180716
0.00011258262
9.3005804e-05
7.0203219e-05
3.1184828e-05
4.0551059e-05
8.7416962e-05
0.00014149522
0.00019808313
0.00027288442
0.00026388756
0.00022799812
0.00021479443
0.00022854217
0.0002557329
0.00026174719
0.00023225657
0.00018015099
0.00012630048
9.3879601e-05
8.6100081e-05
8.3471458e-05
7.3721836e-05
6.0660646e-05
2.8615499e-05
4.0729391e-05
8.5556139e-05
0.00016471676
0.00025991761
0.00022991784
0.00017919054
0.00015660394
0.0001580763
0.00016512312
0.00016697677
0.00015372033
0.00012617318
9.4783496e-05
7.3490893e-05
6.4730991e-05
4.7669387e-05
4.3233659e-05
2.454183e-05
3.1652376e-05
8.0065701e-05
0.00017177555
0.00014616548
0.00012332483
0.00011412055
0.00011749505
0.00012081694
0.00011970369
0.00010964991
9.013625e-05
6.662851e-05
4.2686394e-05
4.6860254e-05
2.7063552e-05
4.5853106e-05
5.9217883e-05
8.2583271e-05
9.1305462e-05
9.7898496e-05
0.00010501812
0.00010630808
9.8265184e-05
7.4365329e-05
5.3199124e-05
2.3887662e-05
1.2354638e-05
4.8732263e-05
4.0694602e-05
4.1592187e-05
4.1694445e-05
3.919792e-05
3.5018459e-05
3.3569045e-05
5.1769934e-05
7.9230465e-05
7.5782219e-05
6.9108482e-05
5.6822311e-05
6.4889385e-05
8.663749e-05
4.0161015e-05
6.2500252e-05
7.4903225e-05
8.8554998e-05
0.00010518287
0.00011860986
0.00012513984
0.00012181486
0.00010976333
0.00013188537
0.00018245778
0.00021328411
7.7263911e-05
4.5043546e-05
4.2354449e-05
6.4349067e-05
8.5648149e-05
9.7279779e-05
0.00010367552
0.000108388
0.00011616928
0.00012988929
0.00014398131
0.00014789987
0.00014154339
0.00016888149
0.00025717671
0.0003026919
0.0001724755
9.5995643e-05
4.4799427e-05
3.924774e-05
7.8653374e-05
0.00010739707
0.00012244886
0.00012589489
0.00012485266
0.00012457104
0.00013256785
0.00015597871
0.00018322569
0.00019278522
0.00019008062
0.00020470132
0.00026483126
0.0002925253
0.00020421216
0.00015740435
9.3885606e-05
4.2215672e-05
4.040097e-05
8.9440531e-05
0.00012783937
0.00015054963
0.00015567043
0.00015029287
0.00014346509
0.00014135566
0.00015615719
0.00019987429
0.00024903059
0.00026334244
0.00024582509
0.00023512126
0.00025033079
0.00025553753
0.00021052893
0.00019016192
0.00013746238
8.6047987e-05
4.3620835e-05
5.0955136e-05
0.00011431028
0.00016050074
0.00018792405
0.0001957773
0.00018910435
0.00017594177
0.00016463948
0.00016042194
0.0001832428
0.00025280375
0.0003281487
0.00035388383
0.00032044946
0.00027102626
0.00024474388
0.00022991888
0.00020800339
0.00020029689
0.00016726869
0.00012338006
8.3059835e-05
4.0654477e-05
0.00012170091
0.00019856705
0.00023329649
0.00023940039
0.00023161188
0.00021792678
0.00020524544
0.00019475074
0.00018601145
0.00020832711
0.00029833696
0.0003951545
0.00042965444
0.00039641394
0.0003218448
0.00025666659
0.00021945531
0.00019932792
0.00019366333
0.00017381601
0.00014122242
0.00010661272
6.4310364e-05
3.6437386e-05
6.3826014e-05
0.00022900066
0.00027909869
0.00027994274
0.00026678544
0.00025459501
0.00024935895
0.00025013659
0.00024433356
0.00022521078
0.0002285373
0.00031774887
0.00042755357
0.00046305332
0.00043416005
0.00036101856
0.00027739736
0.00021846584
0.00018794368
0.00017707042
0.0001635997
0.00014147489
0.00011554225
8.3710777e-05
4.8056936e-05
0.0002726351
0.00039993932
0.00039641165
0.00034598196
0.00030658136
0.00029588183
0.00031025112
0.00032696743
0.00032037956
0.00028486506
0.00025156332
0.00029820382
0.00040146841
0.00044730829
0.00042382932
0.00036141733
0.00028206812
0.00021655795
0.00017822157
0.00016176141
0.00015005006
0.00013522432
0.0001166762
9.3070319e-05
6.0690901e-05
2.7967963e-05
0.00010475882
0.0002377561
0.00033814839
0.00034712901
0.00032743204
0.00032645492
0.00036127715
0.00040967073
0.00043236598
0.00041404452
0.00036021012
0.00029084265
0.00026522861
0.00032105297
0.00037223499
0.00036580685
0.00031864632
0.00025574775
0.00020386998
0.00017371749
0.00015901553
0.00014750092
0.00013406147
0.00011800034
9.9543519e-05
7.3369944e-05
3.507858e-05
0.00010690662
0.00017927344
0.00022308694
0.00026030024
0.0003045547
0.00037760847
0.00047434777
0.00053876974
0.0005455822
0.000508739
0.00043764646
0.00034283443
0.00025895556
0.00023506339
0.00026024749
0.00026902289
0.00024551905
0.00021566478
0.00020301612
0.00020134295
0.00019506721
0.00017812425
0.00015477671
0.00013081784
0.00010996667
8.810278e-05
6.450948e-05
7.9755947e-05
0.00014459137
0.00017507392
0.00023905686
0.00033818668
0.0004820615
0.00061155333
0.00065082313
0.00063447282
0.00058845669
0.00049974921