/*--------------------------------*- C++ -*----------------------------------*\
| =========                 |                                                 |
| \\      /  F ield         | OpenFOAM: The Open Source CFD Toolbox           |
|  \\    /   O peration     | Version:  2406                                  |
|   \\  /    A nd           | Website:  www.openfoam.com                      |
|    \\/     M anipulation  |                                                 |
\*---------------------------------------------------------------------------*/
FoamFile
{
    version     2.0;
    format      ascii;
    arch        "LSB;label=32;scalar=64";
    class       volScalarField;
    location    "200";
    object      nut;
}
// * * * * * * * * * * * * * * * * * * * * * * * * * * * * * * * * * * * * * //

dimensions      [0 2 -1 0 0 0 0];

internalField   nonuniform List<scalar> 
150387
(
4.6266571e-06
4.63357e-06
5.2606796e-06
5.1965453e-06
4.2238825e-06
3.0335871e-06
1.5640919e-06
1.6967827e-06
1.057758e-06
2.2881066e-06
3.0734466e-06
4.3268343e-06
6.1399024e-06
7.4157898e-06
6.5218789e-06
6.8890758e-06
8.0773134e-06
1.0905761e-05
1.4669592e-05
1.6993056e-05
6.6656475e-06
2.313851e-06
4.2175689e-06
6.285328e-06
6.4801025e-06
5.9395604e-06
6.0419314e-06
6.9504676e-06
6.8157918e-06
8.3872493e-06
1.1252734e-05
1.521596e-05
1.9854622e-05
2.3403742e-05
1.7258219e-05
9.5395239e-06
1.6341729e-06
1.0771085e-06
3.6253481e-06
7.7303508e-06
9.5026225e-06
8.8779483e-06
7.3409699e-06
6.3015737e-06
6.3351129e-06
7.7737462e-06
9.2483218e-06
1.0406404e-05
1.2701275e-05
1.6693926e-05
2.0830562e-05
2.5256665e-05
2.0006282e-05
1.7583368e-05
1.1969536e-05
2.1750467e-06
9.6205898e-07
4.7295058e-06
1.0934422e-05
1.2843078e-05
1.2029133e-05
1.0126204e-05
8.2276319e-06
7.0770647e-06
7.1010526e-06
1.0407503e-05
1.4729455e-05
1.6074366e-05
1.4972322e-05
1.6257156e-05
1.947331e-05
2.2402198e-05
1.9518263e-05
1.9886257e-05
1.6824596e-05
1.0093906e-05
2.6184785e-06
5.9327425e-06
1.3854139e-05
1.6326293e-05
1.5489525e-05
1.3383132e-05
1.0888948e-05
9.0085195e-06
7.7157119e-06
7.9600847e-06
1.3983466e-05
2.2233789e-05
2.5768257e-05
2.2210852e-05
1.8224873e-05
1.7710028e-05
1.9552282e-05
1.7758149e-05
1.8916454e-05
1.7756479e-05
1.4282188e-05
7.748351e-06
1.5271677e-06
5.1789585e-06
1.5735571e-05
1.9553728e-05
1.9095921e-05
1.6926696e-05
1.4215712e-05
1.2301477e-05
1.0851994e-05
9.0144933e-06
8.5848693e-06
1.6829234e-05
2.9519753e-05
3.5357448e-05
3.2404226e-05
2.4370837e-05
1.8544999e-05
1.7362181e-05
1.5732457e-05
1.6647896e-05
1.6177403e-05
1.4438981e-05
1.1022029e-05
4.6108593e-06
1.0880102e-06
8.554847e-07
1.4800226e-05
2.0804704e-05
2.142801e-05
1.9644429e-05
1.6934809e-05
1.5216158e-05
1.5084939e-05
1.4194458e-05
1.1438643e-05
9.1379239e-06
1.6731837e-05
3.1968008e-05
3.9625904e-05
3.8154226e-05
3.0842813e-05
2.1681395e-05
1.6544819e-05
1.3701237e-05
1.4076598e-05
1.3784827e-05
1.2950658e-05
1.1118559e-05
7.7035382e-06
2.4262397e-06
1.541053e-05
2.4719232e-05
2.756753e-05
2.5367349e-05
2.2292881e-05
1.9156869e-05
1.9474771e-05
2.1421906e-05
2.0541932e-05
1.6285871e-05
1.1155536e-05
1.2745631e-05
2.6683027e-05
3.6502407e-05
3.6864319e-05
3.1446222e-05
2.2849787e-05
1.6040326e-05
1.2263737e-05
1.1320548e-05
1.1016705e-05
1.0769282e-05
9.7795813e-06
8.2143607e-06
4.5242242e-06
1.6767773e-06
1.6487716e-05
2.3318925e-05
2.5576851e-05
2.3806685e-05
2.0164357e-05
2.0989099e-05
2.7133061e-05
3.0787907e-05
2.913339e-05
2.3295575e-05
1.5465709e-05
1.0263609e-05
1.6868145e-05
2.6655467e-05
2.9504421e-05
2.581503e-05
1.9177839e-05
1.3488766e-05
1.0322799e-05
9.3636612e-06
9.0390039e-06
8.8915679e-06
8.1721897e-06
7.6980963e-06
5.6147297e-06
1.9410132e-06
2.2814163e-06
1.3872408e-05
1.9476052e-05
2.1204054e-05
1.9324595e-05
2.029827e-05
2.9780605e-05
3.8848174e-05
4.1025374e-05
3.7847496e-05
3.1029005e-05
2.1360985e-05
1.2561458e-05
9.0242078e-06
1.4140308e-05
1.7678024e-05
1.6388415e-05
1.2757088e-05
1.0053877e-05
9.54898e-06
1.0318769e-05
1.0159871e-05
9.3460724e-06
8.0844523e-06
7.4821113e-06
6.124834e-06
3.8618598e-06
3.7204009e-06
1.0863632e-05
1.5235542e-05
1.6177912e-05
1.7519814e-05
2.7908416e-05
4.2222034e-05
5.012932e-05
5.0869532e-05
4.5718187e-05
3.6866137e-05
2.6057882e-05
1.5194481e-05
8.1659645e-06
5.5938123e-06
8.0604225e-06
8.7343127e-06
9.0528357e-06
1.304443e-05
1.7243354e-05
1.8583858e-05
1.6812385e-05
1.3614243e-05
1.0224541e-05
7.8857029e-06
6.1266161e-06
5.494488e-06
9.5523689e-07
4.6134249e-06
8.8029095e-06
1.1336694e-05
1.3303095e-05
2.2813945e-05
3.8729967e-05
5.1725843e-05
5.9062821e-05
5.7637988e-05
5.05632e-05
3.9720826e-05
2.7272753e-05
1.4620866e-05
6.24821e-06
3.1716605e-06
3.5820788e-06
6.6166059e-06
1.3612878e-05
2.2523154e-05
2.8818215e-05
2.9587286e-05
2.5585558e-05
1.9327607e-05
1.3092158e-05
8.7119533e-06
5.8152532e-06
4.7007253e-06
1.2834701e-06
4.7166038e-06
7.2974305e-06
9.0565114e-06
1.4834073e-05
2.752372e-05
4.2221005e-05
5.4030739e-05
5.9465938e-05
5.6823681e-05
4.8610661e-05
3.6723947e-05
2.2360632e-05
8.7318824e-06
1.4192924e-06
1.2451313e-06
3.7620436e-06
7.3696064e-06
1.818353e-05
3.0292531e-05
3.6791357e-05
3.6792747e-05
3.1653424e-05
2.291554e-05
1.4745161e-05
9.9534173e-06
7.1454504e-06
4.9823129e-06
1.6308252e-06
3.8612418e-06
6.5051991e-06
8.4994957e-06
1.4271733e-05
2.4728935e-05
3.6996818e-05
4.6071997e-05
4.9936046e-05
4.674977e-05
3.8291332e-05
2.5444075e-05
1.2572316e-05
6.0592109e-06
3.5691901e-06
6.6036623e-06
7.3728982e-06
7.1995718e-06
1.7972349e-05
3.1053735e-05
3.7878587e-05
3.7333402e-05
3.087744e-05
2.1514859e-05
1.4381557e-05
1.1730476e-05
9.0845972e-06
5.9966871e-06
1.5218738e-06
3.3514131e-06
6.244341e-06
7.2015048e-06
1.0794139e-05
1.7201951e-05
2.5075858e-05
3.1926009e-05
3.4166511e-05
3.0386603e-05
2.1926228e-05
1.2060141e-05
9.2903284e-06
1.4739212e-05
1.7586194e-05
1.6973846e-05
1.3495659e-05
9.2560097e-06
1.2621161e-05
2.3666663e-05
3.0972405e-05
3.0157016e-05
2.4004873e-05
1.7975371e-05
1.4871167e-05
1.4903107e-05
1.2319691e-05
6.9873962e-06
2.0328413e-06
1.4095702e-06
6.0900571e-06
6.7255298e-06
7.8033625e-06
1.0213848e-05
1.3629511e-05
1.6593303e-05
1.6975003e-05
1.3818691e-05
9.1490537e-06
1.1990492e-05
2.1116616e-05
3.0581116e-05
3.3252483e-05
3.0542865e-05
2.335968e-05
1.4862936e-05
9.5546512e-06
1.4148246e-05
1.9517264e-05
1.9974955e-05
1.7802795e-05
1.6536131e-05
1.7515974e-05
1.8344694e-05
1.6200547e-05
7.921335e-06
1.9355078e-06
9.8113703e-07
4.3930556e-06
6.915368e-06
7.2243651e-06
7.7210281e-06
8.2925769e-06
8.4187316e-06
7.8216563e-06
8.060703e-06
1.2752405e-05
2.2450044e-05
3.4775596e-05
4.3297237e-05
4.5974119e-05
4.1716694e-05
3.3465649e-05
2.220333e-05
1.2532435e-05
8.3969591e-06
1.1628238e-05
1.3748827e-05
1.5273341e-05
1.7649845e-05
1.9973875e-05
2.245932e-05
2.0698e-05
8.3720369e-06
2.6482215e-06
7.2903662e-06
8.2007854e-06
9.1455687e-06
9.3251504e-06
9.305913e-06
9.4657011e-06
1.1766103e-05
1.8542488e-05
3.0705548e-05
4.3052886e-05
5.2984852e-05
5.6411648e-05
5.1377057e-05
4.1208441e-05
2.9210673e-05
1.6999122e-05
8.7715537e-06
8.8752673e-06
1.2061997e-05
1.5644141e-05
1.8604259e-05
2.2149653e-05
2.5348711e-05
2.2976106e-05
6.9309256e-06
1.8775932e-06
5.9644034e-06
9.6998172e-06
1.1671109e-05
1.2383753e-05
1.2538456e-05
1.2135073e-05
1.4123507e-05
1.9928361e-05
3.2029305e-05
4.5656962e-05
5.6999352e-05
6.1815404e-05
5.6620081e-05
4.5816773e-05
3.3211383e-05
1.9993481e-05
1.0084689e-05
8.9345547e-06
1.2304292e-05
1.5746361e-05
1.8394693e-05
1.9839893e-05
1.8166068e-05
1.0750067e-05
1.4769596e-06
3.2410758e-06
9.5453173e-06
1.338573e-05
1.5160861e-05
1.5918235e-05
1.5359314e-05
1.6258794e-05
1.8280052e-05
2.6468915e-05
4.0863527e-05
5.3177941e-05
5.8915567e-05
5.4942674e-05
4.5027928e-05
3.3030242e-05
2.0232183e-05
1.0608545e-05
1.0030049e-05
1.3919176e-05
1.7421954e-05
2.0747104e-05
2.1925577e-05
1.7259399e-05
4.7321382e-06
2.1012401e-06
6.32823e-06
1.3574117e-05
1.7319937e-05
1.8940593e-05
1.8242321e-05
1.9405674e-05
1.9133134e-05
2.0117546e-05
2.8622203e-05
4.2254308e-05
4.9009334e-05
4.7018794e-05
3.9324665e-05
2.8485435e-05
1.7389398e-05
9.8803585e-06
1.046611e-05
1.3883271e-05
1.6974015e-05
1.931689e-05
1.7334636e-05
8.9451468e-06
7.3402374e-07
2.562902e-06
9.5708967e-06
1.7427503e-05
2.0969626e-05
2.0491703e-05
2.2609972e-05
2.2471799e-05
1.9590361e-05
1.9539873e-05
2.7397275e-05
3.539147e-05
3.5773823e-05
3.0580731e-05
2.1824099e-05
1.3545182e-05
9.0629909e-06
1.0552196e-05
1.3093234e-05
1.5030976e-05
1.4693308e-05
8.0234861e-06
1.0711161e-06
2.8188903e-06
1.223667e-05
1.9989068e-05
2.1166319e-05
2.6528386e-05
2.548751e-05
2.1831006e-05
1.7671228e-05
1.6524571e-05
2.086155e-05
2.2665641e-05
1.9969943e-05
1.4768333e-05
9.7928218e-06
7.9394981e-06
9.5494651e-06
1.0952479e-05
1.0599101e-05
6.3556109e-06
1.3403416e-06
2.9396952e-06
1.3217664e-05
1.8317621e-05
2.9284791e-05
2.7215995e-05
2.2550136e-05
1.8274983e-05
1.4182325e-05
1.2159497e-05
1.2645476e-05
1.1697471e-05
9.3469836e-06
7.2385359e-06
7.3360092e-06
8.4425691e-06
7.3645398e-06
3.1794637e-06
9.7248957e-07
1.1205296e-06
7.0516516e-06
2.3428207e-05
2.1836913e-05
1.9036318e-05
1.4960078e-05
1.1399436e-05
8.6467445e-06
7.3991269e-06
6.5878198e-06
5.622857e-06
4.8279299e-06
4.5676841e-06
4.1986755e-06
1.9453177e-06
7.5542504e-07
3.9261348e-06
7.2343225e-06
8.4897575e-06
8.048817e-06
7.4035214e-06
7.1957241e-06
6.9092956e-06
6.1093634e-06
4.3277217e-06
3.1185298e-06
1.7437029e-06
1.089488e-06
2.2104963e-06
1.9315117e-06
1.8152286e-06
2.0135597e-06
9.3401325e-07
1.3900909e-06
1.8384483e-06
3.9788821e-06
8.4644584e-06
1.5995776e-05
1.5076692e-05
1.4113689e-05
8.8394298e-06
5.8822316e-06
3.592037e-06
4.1954957e-06
1.5309219e-05
2.0179539e-05
2.3695516e-05
2.6564177e-05
2.8514603e-05
2.9906065e-05
3.0361366e-05
2.3934319e-05
1.8132655e-05
1.537651e-05
1.4701229e-05
8.3576508e-06
1.4691772e-06
2.1606973e-06
1.5666765e-05
2.6498739e-05
3.2522164e-05
3.2689605e-05
2.9859891e-05
2.8239581e-05
3.0089279e-05
3.3801043e-05
3.7332105e-05
3.5001421e-05
3.0317861e-05
2.9014271e-05
2.8069124e-05
2.5734662e-05
1.1900672e-05
4.6459146e-06
2.7725629e-06
1.9411822e-05
3.3900214e-05
4.1763396e-05
4.208216e-05
3.7294365e-05
3.1624617e-05
3.0064374e-05
3.4684067e-05
4.1416352e-05
4.5482812e-05
4.6150531e-05
4.3007291e-05
4.0900364e-05
3.8913066e-05
3.5877985e-05
2.6637306e-05
1.6858859e-05
5.2527276e-06
2.8169019e-06
1.9251482e-05
3.4413259e-05
4.4622821e-05
4.8057908e-05
4.5645118e-05
3.9491244e-05
3.3577186e-05
3.4155685e-05
4.4351425e-05
5.6459439e-05
5.9730193e-05
5.6804319e-05
5.3592875e-05
5.0230342e-05
4.7194263e-05
4.4298763e-05
4.0005924e-05
3.2392153e-05
2.1472576e-05
5.6398189e-06
2.2852889e-06
1.6822795e-05
3.1853623e-05
4.4136889e-05
5.0908938e-05
5.1795219e-05
4.7689766e-05
4.1127968e-05
3.5439935e-05
3.8724021e-05
5.5756248e-05
7.4366972e-05
7.9865504e-05
7.2298587e-05
6.2862818e-05
5.7366585e-05
5.3710514e-05
5.0602674e-05
4.9059421e-05
4.4674354e-05
3.6653064e-05
2.1460079e-05
4.1918918e-06
1.2636867e-05
2.7955538e-05
4.1179318e-05
5.0342023e-05
5.4936705e-05
5.45515e-05
5.0634176e-05
4.5140118e-05
3.9004159e-05
4.1922035e-05
6.4103935e-05
8.8370832e-05
9.7312669e-05
8.9816716e-05
7.4398182e-05
6.2312076e-05
5.6978171e-05
5.3537814e-05
5.3178843e-05
5.0773721e-05
4.5737405e-05
3.532131e-05
1.6316067e-05
2.5282999e-06
4.5464179e-06
2.5546873e-05
3.7345544e-05
4.6892639e-05
5.4075494e-05
5.7940843e-05
5.8565973e-05
5.7784972e-05
5.4011097e-05
4.5957685e-05
4.3418976e-05
6.469616e-05
9.2223542e-05
0.00010418299
9.9218021e-05
8.3715059e-05
6.6587826e-05
5.6152129e-05
5.1362017e-05
5.1689068e-05
5.0948227e-05
4.8030565e-05
4.156834e-05
2.7179943e-05
7.8040291e-06
1.5873855e-05
2.987912e-05
4.1889458e-05
5.2071593e-05
6.0082222e-05
6.4938008e-05
6.9455984e-05
7.2266127e-05
6.8668723e-05
5.7966102e-05
4.6398841e-05
5.6051916e-05
8.2112827e-05
9.6952219e-05
9.5262086e-05
8.2787904e-05
6.6061256e-05
5.28167e-05
4.5930853e-05
4.5347242e-05
4.5191432e-05
4.3846788e-05
3.9974515e-05
3.1960353e-05
1.6017357e-05
3.0099293e-06
2.3565269e-06
1.6194006e-05
3.1090739e-05
4.512528e-05
5.7153294e-05
6.5450275e-05
7.5527899e-05
8.7100814e-05
9.1615117e-05
8.6349293e-05
7.3017645e-05
5.5316534e-05
4.638929e-05
6.1208916e-05
7.6827243e-05
7.9068421e-05
7.0473947e-05
5.704483e-05
4.5994573e-05
4.0136713e-05
3.8367233e-05
3.7739319e-05
3.6589672e-05
3.4030241e-05
3.0561076e-05
2.1049858e-05
6.5081316e-06
5.4861307e-06
1.9053188e-05
3.2764433e-05
4.8678029e-05
6.0823093e-05
7.4845736e-05
9.5253871e-05
0.00010973562
0.00011191804
0.00010365347
8.7742835e-05
6.6873828e-05
4.6753423e-05
4.024275e-05
4.9695686e-05
5.4878982e-05
5.0754774e-05
4.4079142e-05
4.1886384e-05
4.3143502e-05
4.325592e-05
4.024818e-05
3.5680712e-05
3.0967763e-05
2.7502588e-05
2.222629e-05
1.3598778e-05
8.111852e-06
2.4794174e-05
3.8121606e-05
5.1731837e-05
6.7138313e-05
9.3138717e-05
0.00011748647
0.00012955512
0.00012827819
0.00011701288
9.8157371e-05
7.4160572e-05
5.0354925e-05
3.1624805e-05
2.602904e-05
3.0294632e-05
3.4550444e-05
4.3561722e-05
5.597695e-05
6.4162131e-05
6.4390932e-05
5.7606917e-05
4.7137089e-05
3.6376918e-05
2.8689018e-05
2.3514842e-05
1.8350174e-05
1.1073418e-06
1.2385511e-05
3.1890401e-05
4.1473023e-05
5.410057e-05
7.9397815e-05
0.00010990642
0.0001315531
0.00013940311
0.00013556509
0.00012285183
0.00010061142
7.2724751e-05
4.7816412e-05
2.5066608e-05
1.4980579e-05
1.8881206e-05
3.5853533e-05
5.8915275e-05
7.7781423e-05
8.7317164e-05
8.5952259e-05
7.5680696e-05
6.0516031e-05
4.5057123e-05
3.437272e-05
2.6930508e-05
2.1282554e-05
2.8769787e-06
1.7122804e-05
3.1555575e-05
4.0540473e-05
5.687389e-05
8.4439917e-05
0.00011232205
0.00013133189
0.00013762124
0.00013164067
0.00011546421
8.9889504e-05
5.940374e-05
3.7872731e-05
2.0340629e-06
3.5673967e-06
2.2869029e-05
4.1197017e-05
6.9596395e-05
9.0958451e-05
0.00010048753
9.740901e-05
8.4335297e-05
6.6122821e-05
4.9660867e-05
3.9449965e-05
3.0805927e-05
1.9166236e-05
3.4507146e-06
1.1453487e-05
2.9746586e-05
3.6311338e-05
5.1427828e-05
7.4416726e-05
9.7289647e-05
0.00011307181
0.00011767278
0.00010955396
9.0341964e-05
6.4571155e-05
4.2942706e-05
3.1038567e-05
1.6211111e-05
2.4933489e-05
3.5441301e-05
4.0824556e-05
6.7962727e-05
8.9982777e-05
9.9191188e-05
9.4791824e-05
8.0243232e-05
6.3157798e-05
5.015315e-05
4.0687201e-05
3.0869612e-05
2.4825135e-05
3.6809715e-06
1.0797172e-05
2.6278013e-05
2.9814867e-05
3.8739143e-05
5.3966241e-05
7.0053695e-05
8.1175534e-05
8.2826874e-05
7.3758856e-05
5.6702574e-05
4.6234245e-05
5.3047706e-05
6.5162803e-05
6.9788277e-05
6.4445997e-05
5.2175258e-05
4.2015638e-05
5.5308155e-05
7.5025047e-05
8.3292592e-05
7.9204674e-05
6.8418681e-05
5.7894841e-05
4.8693564e-05
3.7906704e-05
2.618252e-05
2.1278472e-05
3.0838646e-06
4.3105273e-06
2.2202451e-05
2.7252806e-05
3.0090845e-05
3.5899743e-05
4.3093614e-05
4.8139713e-05
4.7568804e-05
4.283895e-05
4.4143392e-05
5.9941821e-05
8.1366021e-05
9.6513451e-05
9.9371398e-05
9.0246633e-05
7.2749593e-05
5.2419501e-05
4.3340709e-05
5.4497277e-05
6.2427697e-05
6.2426203e-05
5.9591345e-05
5.436221e-05
4.6465929e-05
3.5706367e-05
2.2381171e-05
1.5873901e-05
2.5363771e-06
2.0470828e-05
3.0535425e-05
3.3561224e-05
3.5520498e-05
3.6002181e-05
3.6093901e-05
3.6057544e-05
4.2617919e-05
5.797098e-05
8.1781641e-05
0.00010502521
0.00012025279
0.00012256989
0.00011167682
9.1589879e-05
6.6725858e-05
4.4227275e-05
3.8965977e-05
4.7807659e-05
5.399426e-05
5.5949925e-05
5.2115641e-05
4.5062526e-05
3.4701788e-05
1.9926018e-05
1.0699979e-05
1.5758142e-05
3.2207616e-05
4.0605602e-05
4.4850184e-05
4.6276499e-05
4.6052933e-05
4.5663782e-05
5.1766592e-05
6.8383716e-05
9.3582591e-05
0.0001183843
0.00013467078
0.00013774107
0.00012687296
0.00010536702
7.8583693e-05
5.1385787e-05
3.6092196e-05
4.1774167e-05
5.2269153e-05
5.4879982e-05
5.070974e-05
4.297396e-05
3.2290163e-05
1.7986194e-05
5.4354464e-06
6.4150534e-06
2.7174761e-05
4.2033706e-05
4.9168289e-05
5.2419375e-05
5.3557191e-05
5.3202097e-05
5.7198168e-05
6.8878025e-05
9.2612783e-05
0.00011975812
0.00013843665
0.00014240472
0.00013315946
0.00011152763
8.4258473e-05
5.5778524e-05
3.7148343e-05
4.2129144e-05
5.2967773e-05
5.3971669e-05
4.9021878e-05
3.8932003e-05
2.649702e-05
2.074739e-05
1.729321e-06
1.7501841e-06
1.6345474e-05
3.5408912e-05
4.6550269e-05
5.1990688e-05
5.4617508e-05
5.5862924e-05
5.9670015e-05
6.5099445e-05
8.0899595e-05
0.00010725575
0.0001291508
0.00013641744
0.00012791828
0.00010803117
8.2200864e-05
5.4830005e-05
3.7388731e-05
4.4541655e-05
5.4407736e-05
5.3822742e-05
4.6298654e-05
3.0487976e-05
1.1993901e-05
6.3631149e-06
4.2171506e-06
2.1622882e-05
3.7363535e-05
4.5759472e-05
5.0630744e-05
5.3146924e-05
5.708796e-05
6.1661397e-05
6.7782991e-05
8.4426002e-05
0.00010665887
0.00011722326
0.00011195561
9.5489803e-05
7.2744809e-05
4.8626722e-05
3.5334442e-05
4.4357988e-05
5.2037401e-05
5.0383239e-05
4.1024615e-05
2.3587811e-05
1.2504776e-05
4.9653925e-06
2.2092698e-05
3.3213791e-05
4.1378982e-05
4.7064203e-05
5.0778641e-05
5.5178935e-05
5.9242046e-05
6.4517697e-05
7.7280756e-05
8.8863711e-05
8.8234696e-05
7.6570466e-05
5.8657508e-05
3.9782769e-05
3.2285852e-05
4.1582155e-05
4.636645e-05
4.1812286e-05
2.8363141e-05
1.8212206e-05
2.1963961e-06
5.5837202e-06
1.7411738e-05
2.765564e-05
3.8649846e-05
4.2327963e-05
4.5389026e-05
4.8229683e-05
5.2187536e-05
5.5376998e-05
6.0601981e-05
6.1914937e-05
5.5384887e-05
4.3219492e-05
3.0788586e-05
2.8323259e-05
3.5581654e-05
3.533301e-05
2.4701648e-05
1.7038868e-05
2.2822076e-06
4.5289642e-06
1.2553662e-05
2.8115275e-05
3.0832483e-05
3.1848658e-05
3.3480633e-05
3.8111128e-05
4.2966403e-05
4.3798181e-05
4.2488211e-05
3.8328428e-05
3.1141053e-05
2.4244631e-05
2.3447969e-05
2.5934721e-05
1.6200345e-05
1.1502315e-05
1.9864963e-06
2.2938964e-06
1.2318036e-05
1.6187016e-05
1.637458e-05
1.928528e-05
2.5030362e-05
3.1846407e-05
3.4283165e-05
3.1962862e-05
2.8154726e-05
2.2500736e-05
1.6651964e-05
1.1713344e-05
1.4517083e-05
4.5898311e-06
3.6619756e-06
6.8562958e-06
1.1217707e-05
1.7751793e-05
2.3946223e-05
2.8413502e-05
2.8109834e-05
2.4778974e-05
1.662761e-05
1.0092669e-05
3.34629e-06
1.0544408e-06
2.1064627e-06
3.9906064e-06
4.1589015e-06
4.087082e-06
3.0073408e-06
1.9524678e-06
4.1016557e-06
1.0116649e-05
2.238209e-05
2.0857802e-05
1.8128566e-05
1.0776034e-05
6.5138504e-06
4.7031942e-06
4.699021e-06
2.1005103e-05
2.9903688e-05
3.579906e-05
3.9561134e-05
4.2498205e-05
4.5123085e-05
4.151948e-05
2.5382505e-05
1.673604e-05
1.5690103e-05
1.7043088e-05
7.3310388e-06
2.0984423e-06
2.3032068e-06
1.8585471e-05
3.4008123e-05
4.4594625e-05
4.7922231e-05
4.5820527e-05
4.4038729e-05
4.6343346e-05
5.1760744e-05
5.251184e-05
3.8983447e-05
2.8157133e-05
2.8490768e-05
2.9418806e-05
2.4520754e-05
1.1371123e-05
4.9189067e-06
2.91721e-06
2.0978955e-05
3.8969774e-05
5.2388278e-05
5.7914215e-05
5.5713434e-05
4.9803282e-05
4.7603189e-05
5.3158505e-05
6.1757111e-05
6.5380571e-05
5.8298099e-05
4.4923092e-05
4.0152756e-05
3.8251105e-05
3.436098e-05
2.4563789e-05
1.5597103e-05
5.4157072e-06
2.9135227e-06
1.8619473e-05
3.5146907e-05
4.9950175e-05
5.959427e-05
6.2687946e-05
5.9034235e-05
5.2930894e-05
5.3579077e-05
6.5501631e-05
7.8949087e-05
8.2793724e-05
7.7376899e-05
6.4926782e-05
5.3314201e-05
4.7734158e-05
4.4678064e-05
3.8408744e-05
3.0952379e-05
2.1827952e-05
6.2711681e-06
2.4440703e-06
1.5961465e-05
3.0115589e-05
4.4760381e-05
5.6817914e-05
6.4374449e-05
6.5927961e-05
6.1251215e-05
5.5573108e-05
6.0037689e-05
7.909495e-05
9.7643789e-05
0.00010323228
9.6346829e-05
8.359176e-05
6.9847143e-05
5.9796042e-05
5.5564772e-05
5.1544976e-05
4.6960941e-05
3.9703312e-05
2.5396522e-05
5.2650955e-06
1.229552e-05
2.6254958e-05
3.9467198e-05
5.1738926e-05
6.2195617e-05
6.9304726e-05
7.0194198e-05
6.5282767e-05
5.9320462e-05
6.4401101e-05
8.8712046e-05
0.0001108023
0.00011857708
0.00011260439
9.8141859e-05
8.3356965e-05
7.2412805e-05
6.5575412e-05
6.1850416e-05
5.8905015e-05
5.3874038e-05
4.3242203e-05
2.0204539e-05
2.8130726e-06
5.4551581e-06
2.497464e-05
3.6165323e-05
4.6439758e-05
5.7349896e-05
6.8634081e-05
7.6706302e-05
7.8331708e-05
7.4262735e-05
6.6368993e-05
6.6739433e-05
9.032176e-05
0.00011449471
0.00012402362
0.00012012539
0.00010642249
8.9596222e-05
7.7480817e-05
7.0485474e-05
6.7529853e-05
6.5196884e-05
6.163968e-05
5.4106126e-05
3.6159418e-05
1.1117044e-05
1.9313521e-05
3.3338542e-05
4.2445339e-05
5.1827463e-05
6.4578835e-05
7.9557018e-05
8.9853476e-05
9.3334388e-05
8.9461415e-05
7.8728345e-05
6.9454148e-05
8.2316818e-05
0.00010633635
0.00011806376
0.00011628377
0.00010488102
8.8570204e-05
7.4795154e-05
6.7373266e-05
6.5585037e-05
6.4237615e-05
6.1578677e-05
5.602401e-05
4.4413341e-05
2.2502846e-05
3.333904e-06
2.9591274e-06
1.7636265e-05
3.1726789e-05
4.4342313e-05
5.9686772e-05
7.880047e-05
9.6586204e-05
0.00010878105
0.00011267137
0.000107453
9.4247648e-05
7.7001456e-05
7.1376168e-05
8.6679618e-05
9.9976068e-05
0.00010124504
9.2695346e-05
7.9175577e-05
6.7639828e-05
6.1391428e-05
5.8813665e-05
5.7312372e-05
5.4770168e-05
5.0488074e-05
4.4153883e-05
3.0569309e-05
8.1533833e-06
6.5671854e-06
1.8540369e-05
3.0503326e-05
4.9738785e-05
7.3294484e-05
9.72217e-05
0.00011792187
0.00013014351
0.00013162959
0.00012410729
0.00010882997
8.7838206e-05
6.7950279e-05
6.32102e-05
7.2254715e-05
7.6513966e-05
7.2246037e-05
6.6088458e-05
6.3968704e-05
6.4792797e-05
6.4056552e-05
5.9943209e-05
5.3781974e-05
4.7099094e-05
4.1270625e-05
3.2759402e-05
1.9135522e-05
7.9399123e-06
2.525526e-05
3.9894805e-05
6.3731969e-05
8.9352616e-05
0.00011711553
0.00013773288
0.00014622642
0.00014487425
0.00013572039
0.0001185533
9.4773535e-05
6.9433681e-05
4.8658473e-05
4.3678762e-05
4.7995853e-05
5.4230697e-05
6.569133e-05
7.8710711e-05
8.6396846e-05
8.6156619e-05
7.8884326e-05
6.7260795e-05
5.467523e-05
4.4891753e-05
3.7546934e-05
2.8461427e-05
1.4737731e-06
1.4288379e-05
3.9705786e-05
5.4598544e-05
7.4426027e-05
0.00010279763
0.0001311441
0.00014779635
0.00015275317
0.00014977143
0.00014021708
0.00012051416
9.3290663e-05
6.9026231e-05
3.8040987e-05
2.7930394e-05
3.3632026e-05
5.576557e-05
8.1438535e-05
0.00010015103
0.00010874822
0.00010724069
9.7419229e-05
8.2032621e-05
6.5482491e-05
5.3032876e-05
4.3628177e-05
3.6360706e-05
3.3996934e-06
1.8781452e-05
4.335218e-05
5.8915396e-05
7.7995801e-05
0.00010640559
0.0001320972
0.00014698657
0.00015151005
0.00014689206
0.00013449456
0.00011107444
8.1485747e-05
5.8636662e-05
2.296751e-06
6.4058131e-06
3.8666794e-05
6.3033398e-05
9.2819335e-05
0.00011264187
0.00012058976
0.00011788167
0.00010623712
8.8583303e-05
7.0845132e-05
5.744197e-05
4.5052999e-05
2.6287262e-05
3.7606247e-06
1.4202251e-05
4.3988612e-05
5.4741423e-05
7.1732237e-05
9.6140397e-05
0.00011850785
0.00013276157
0.00013681087
0.00013022839
0.00011324397
8.9419232e-05
6.8110442e-05
5.6500201e-05
2.1408338e-05
3.5652496e-05
5.3815229e-05
6.4419898e-05
9.268223e-05
0.00011261615
0.00012004776
0.00011625992
0.00010339882
8.5841857e-05
6.8178524e-05
5.0993465e-05
3.7376264e-05
3.5595855e-05
3.9090447e-06
1.6036698e-05
4.0191806e-05
4.6515148e-05
5.753861e-05
7.4847287e-05
9.192966e-05
0.00010305964
0.00010511181
9.7438685e-05
8.2437786e-05
7.3141949e-05
7.8290258e-05
8.77712e-05
9.0611049e-05
8.4485931e-05
7.215765e-05
6.5333953e-05
8.1942561e-05
0.00010016823
0.00010701277
0.00010310139
9.2005208e-05
7.6429746e-05
5.7332639e-05
3.8145168e-05
2.4162219e-05
2.4744284e-05
3.5386891e-06
4.7461604e-06
3.2590962e-05
4.1638447e-05
4.6861772e-05
5.4786804e-05
6.3634292e-05
6.9634242e-05
6.9989818e-05
6.6694211e-05
6.9165063e-05
8.584266e-05
0.00010544317
0.00011807624
0.00011974543
0.00011063439
9.3270677e-05
7.3612904e-05
6.828451e-05
8.0543874e-05
8.7524079e-05
8.6685861e-05
7.9282356e-05
6.4189425e-05
4.7437769e-05
3.1983475e-05
1.7963854e-05
1.4016849e-05
2.6230239e-06
2.9475775e-05
4.4026042e-05
5.0147324e-05
5.4071961e-05
5.5778359e-05
5.6490508e-05
5.7205987e-05
6.5577777e-05
8.2054368e-05
0.00010589062
0.00012722013
0.00013932811
0.0001403664
0.0001308951
0.00011173545
8.6696452e-05
6.5319885e-05
6.287674e-05
7.2073636e-05
7.5841856e-05
6.9448376e-05
5.6200255e-05
4.3750533e-05
3.1072636e-05
1.6760022e-05
8.1458501e-06
2.1882875e-05
4.4174778e-05
5.6304852e-05
6.2237968e-05
6.5020361e-05
6.6182112e-05
6.7290374e-05
7.4383929e-05
9.182249e-05
0.0001165432
0.00013849645
0.00015018083
0.0001515231
0.00014353276
0.00012460976
9.8016295e-05
7.021891e-05
5.7010695e-05
6.4581661e-05
7.0798193e-05
6.428212e-05
5.288341e-05
4.0803634e-05
2.9931453e-05
1.7355898e-05
6.2012825e-06
8.0967979e-06
3.602516e-05
5.4112289e-05
6.2079524e-05
6.5770128e-05
6.801802e-05
7.1010174e-05
7.8147926e-05
9.2244385e-05
0.00011579524
0.00013958076
0.00015270721
0.00015479379
0.00014817993
0.00012992992
0.00010327408
7.3975476e-05
5.7026974e-05
6.3132414e-05
6.8381142e-05
6.2156746e-05
5.0864662e-05
3.6948796e-05
2.5387507e-05
2.2562896e-05
2.2318507e-06
2.0386396e-06
2.0368716e-05
4.3282353e-05
5.4311352e-05
5.9490385e-05
6.2501252e-05
6.6112491e-05
7.3150154e-05
8.5241521e-05
0.00010494526
0.00012959681
0.00014676904
0.00015109438
0.00014438636
0.00012674935
0.00010125451
7.3098016e-05
5.6824386e-05
6.4164011e-05
6.7671299e-05
6.0501673e-05
4.6082154e-05
2.6699664e-05
1.0712567e-05
6.2913562e-06
4.608749e-06
2.577764e-05
4.0362486e-05
4.7679644e-05
5.2539153e-05
5.7112657e-05
6.1723904e-05
7.1712226e-05
8.7333757e-05
0.00010901006
0.00012872086
0.00013656457
0.00013113288
0.00011509411
9.21055e-05
6.7058299e-05
5.4103452e-05
6.2595445e-05
6.5025579e-05
5.753516e-05
4.2032504e-05
2.2036684e-05
1.2952585e-05
5.9867475e-06
2.2494352e-05
3.1563418e-05
3.9482018e-05
4.6825959e-05
5.086522e-05
5.6704015e-05
6.7406935e-05
8.3856223e-05
0.00010059385
0.00011073517
0.00010889981
9.6519559e-05
7.7670666e-05
5.7679776e-05
4.9701491e-05
5.7806652e-05
5.8596376e-05
4.951218e-05
3.2078374e-05
2.1253712e-05
2.5929863e-06
6.1599733e-06
1.6076311e-05
2.5555408e-05
3.6840793e-05
4.1720731e-05
4.4112208e-05
4.729537e-05
5.9422862e-05
7.3375888e-05
8.1734245e-05
8.2361456e-05
7.4676349e-05
6.1353037e-05
4.7514444e-05
4.372028e-05
4.9225031e-05
4.5665842e-05
3.1547501e-05
2.2179053e-05
2.5904153e-06
4.7667879e-06
1.2073084e-05
2.6684695e-05
3.2367087e-05
3.1384376e-05
3.0188756e-05
3.6671014e-05
5.1526448e-05
6.1270003e-05
6.1941035e-05
5.6791642e-05
4.8021706e-05
3.8965235e-05
3.5777776e-05
3.5514603e-05
2.0843644e-05
1.6738418e-05
2.3132673e-06
2.7849288e-06
1.2959722e-05
1.8601261e-05
1.6877812e-05
1.7523438e-05
2.3351972e-05
3.6419759e-05
4.7109229e-05
4.8639459e-05
4.4434052e-05
3.5893179e-05
2.6702243e-05
1.7964476e-05
2.2203504e-05
6.9958746e-06
4.6098345e-06
4.8466024e-06
1.036684e-05
1.8079073e-05
2.8675884e-05
3.8680749e-05
4.1040704e-05
3.7199514e-05
2.3020459e-05
1.4877461e-05
4.2207452e-06
1.2259623e-06
2.4016548e-06
4.3037609e-06
4.5641349e-06
4.4905725e-06
3.6525707e-06
2.0384247e-06
4.3634523e-06
1.2305589e-05
2.6322844e-05
2.3589701e-05
1.8371358e-05
1.0266862e-05
7.7767584e-06
6.0474763e-06
4.9845144e-06
2.5627439e-05
3.8064843e-05
4.6099627e-05
5.0884366e-05
5.4758054e-05
5.7046242e-05
4.8697265e-05
2.5930716e-05
1.778639e-05
1.9777134e-05
2.1420039e-05
7.3437079e-06
2.5258074e-06
2.4093827e-06
2.0231057e-05
3.893522e-05
5.3410535e-05
5.9938641e-05
5.9280146e-05
5.8296735e-05
6.1570993e-05
6.730465e-05
6.3588458e-05
4.0303867e-05
2.8219365e-05
3.3704625e-05
3.556711e-05
2.5080934e-05
1.2274329e-05
5.4873575e-06
2.9964056e-06
2.0746096e-05
4.0103579e-05
5.7602199e-05
6.8441233e-05
7.0062325e-05
6.5439096e-05
6.3794505e-05
7.0001469e-05
7.8802297e-05
8.0536028e-05
6.4921389e-05
4.4734775e-05
4.2441054e-05
4.199673e-05
3.4616361e-05
2.5151464e-05
1.5776529e-05
5.4126289e-06
3.0618884e-06
1.7518098e-05
3.3141402e-05
4.9882266e-05
6.4377065e-05
7.3614394e-05
7.4390066e-05
6.9865413e-05
7.1220069e-05
8.3101197e-05
9.573038e-05
9.9447285e-05
9.1130939e-05
6.9610812e-05
5.3816997e-05
4.8293359e-05
4.3731032e-05
3.69981e-05
2.9254561e-05
2.0203145e-05
6.4943728e-06
2.6861785e-06
1.7028594e-05
2.9405577e-05
4.2641122e-05
5.6487076e-05
6.9114092e-05
7.7377302e-05
7.7120291e-05
7.3286543e-05
7.8831928e-05
9.684157e-05
0.00011326236
0.00011843297
0.00011218552
9.6258781e-05
7.4976783e-05
6.1190143e-05
5.5671921e-05
5.0296759e-05
4.553076e-05
3.8982199e-05
2.7000317e-05
6.1078902e-06
1.3900528e-05
2.8195823e-05
3.9367602e-05
5.0162308e-05
6.2435431e-05
7.5293421e-05
8.2975018e-05
8.100415e-05
7.6832655e-05
8.3699548e-05
0.00010659847
0.00012500401
0.00013112875
0.00012654935
0.00011332077
9.6392509e-05
8.0490793e-05
7.0537272e-05
6.4498668e-05
6.1292323e-05
5.7026294e-05
4.7666057e-05
2.3198871e-05
2.9989292e-06
6.4802137e-06
2.8087415e-05
3.9235287e-05
4.7078076e-05
5.6580206e-05
7.0648577e-05
8.5886323e-05
9.2283665e-05
8.9015064e-05
8.2671772e-05
8.622389e-05
0.00010901766
0.00012834074
0.00013482475
0.00013201112
0.00012053784
0.00010510928
9.2150377e-05
8.2678908e-05
7.6800908e-05
7.3425798e-05
7.0058539e-05
6.262165e-05
4.3269867e-05
1.4921165e-05
2.4633901e-05
4.1642826e-05
4.8904703e-05
5.3545253e-05
6.393389e-05
8.4121478e-05
0.00010159312
0.00010684239
0.00010288423
9.3265835e-05
8.8356273e-05
0.00010328162
0.00012199523
0.00013031523
0.00012848448
0.00011859426
0.00010385562
9.1213011e-05
8.391409e-05
8.0928204e-05
7.8465686e-05
7.4988552e-05
6.839166e-05
5.462205e-05
2.8667867e-05
3.5472975e-06
3.6270238e-06
2.2947819e-05
3.9055896e-05
4.8026365e-05
5.8996665e-05
8.1615973e-05
0.00010715291
0.0001212518
0.00012473404
0.00011963285
0.00010728481
9.2891776e-05
9.2069147e-05
0.00010523104
0.00011509302
0.00011527784
0.00010731281
9.5149893e-05
8.4950809e-05
7.9312413e-05
7.6532523e-05
7.4064823e-05
7.0308581e-05
6.4545685e-05
5.5894302e-05
3.9130056e-05
1.0181492e-05
8.2435252e-06
2.1038401e-05
3.1832748e-05
4.8270969e-05
7.6395607e-05
0.00010852462
0.00013041934
0.00014043837
0.00014101685
0.00013452503
0.00012068456
0.00010110089
8.4628912e-05
8.2404412e-05
8.9555729e-05
9.2262102e-05
8.858519e-05
8.4093362e-05
8.2678508e-05
8.2701519e-05
8.1188936e-05
7.6558606e-05
6.9721203e-05
6.1986204e-05
5.4346003e-05
4.2873862e-05
2.4248372e-05
6.7461181e-06
2.5353128e-05
3.9175536e-05
6.7800316e-05
0.00010267077
0.00013083487
0.00014755532