/*--------------------------------*- C++ -*----------------------------------*\
| =========                 |                                                 |
| \\      /  F ield         | OpenFOAM: The Open Source CFD Toolbox           |
|  \\    /   O peration     | Version:  2406                                  |
|   \\  /    A nd           | Website:  www.openfoam.com                      |
|    \\/     M anipulation  |                                                 |
\*---------------------------------------------------------------------------*/
FoamFile
{
    version     2.0;
    format      ascii;
    arch        "LSB;label=32;scalar=64";
    class       volScalarField;
    location    "200";
    object      p;
}
// * * * * * * * * * * * * * * * * * * * * * * * * * * * * * * * * * * * * * //

dimensions      [0 2 -2 0 0 0 0];

internalField   nonuniform List<scalar> 
150387
(
0.0059986956
0.0082564675
0.0082174755
0.0081959669
0.0081541939
0.0081402421
0.0082187287
0.0084472599
0.0084416038
0.0083720827
0.008311541
0.008260294
0.0082299357
0.0081893836
0.0081610194
0.0080984668
0.0080700929
0.0081689749
0.0084785839
0.0088267203
0.0086941989
0.0085468088
0.0084515723
0.0083471974
0.0082617655
0.0081999957
0.008159284
0.0081224907
0.0080974873
0.0080322423
0.0079991369
0.008088406
0.0083739616
0.008716757
0.0086521931
0.0086973362
0.0086518865
0.008748525
0.0086682861
0.0085524924
0.008413343
0.0082851011
0.0081831653
0.0081147634
0.0080684134
0.0080268399
0.0079914624
0.0079325176
0.007901167
0.0079558081
0.0081350546
0.0083830389
0.0085006144
0.0086159503
0.0086008517
0.0085373385
0.0089488301
0.0088511551
0.0087023684
0.0085242869
0.0083473845
0.0081973052
0.0080832159
0.0080099467
0.0079605524
0.0079122039
0.0078624149
0.0078130344
0.0077978243
0.0078338162
0.0079402624
0.0081059486
0.0082691832
0.0084150319
0.0084828091
0.0084603872
0.0084116922
0.0090623833
0.0089102509
0.0086773953
0.0084456418
0.0082432965
0.008081067
0.0079588446
0.007881453
0.0078315096
0.0077769583
0.0077097749
0.0076611152
0.0076678302
0.0077111936
0.0077864158
0.0079010449
0.0080515257
0.0081995879
0.0083018984
0.0083425924
0.008330269
0.008304007
0.0092579408
0.009129937
0.0088635668
0.008568256
0.0083113762
0.0081088967
0.0079427247
0.0078144448
0.0077324778
0.0076846193
0.0076286942
0.0075459736
0.0074984995
0.0075121928
0.0075772527
0.0076519127
0.0077457773
0.0078750584
0.0080110368
0.0081256497
0.0081998223
0.008232413
0.0082381723
0.008227169
0.0093462184
0.0092991521
0.0090678625
0.00871292
0.0083939889
0.008152869
0.0079585813
0.0077857508
0.0076488446
0.0075668744
0.0075253556
0.0074753435
0.0073851705
0.0073349137
0.0073446891
0.007411683
0.0075151227
0.0076151524
0.0077338592
0.0078617045
0.0079797035
0.0080673042
0.0081234542
0.0081539461
0.0081553208
0.0095156301
0.0094109407
0.0089449716
0.0085193463
0.0082064014
0.0079940153
0.0077989819
0.0075991932
0.0074535934
0.0073817801
0.0073621764
0.0073335528
0.0072489282
0.007183083
0.0071930248
0.0072624984
0.0073774292
0.0075010214
0.0076248851
0.0077526842
0.0078721547
0.0079670767
0.00803381
0.0080783866
0.0080986974
0.0081150326
0.0091057182
0.0089161377
0.0085235044
0.0082173496
0.0080084562
0.0078540489
0.0076190966
0.007396189
0.0072470453
0.007182568
0.0071859907
0.0072054463
0.0071681423
0.007102791
0.0071055705
0.0071769564
0.0072913868
0.0074194262
0.0075496435
0.0076799245
0.0077989344
0.007896706
0.0079704501
0.0080227398
0.0080544569
0.0080689194
0.0088276708
0.00858443
0.0084001281
0.008173196
0.008005847
0.0078799089
0.0077002266
0.0074487361
0.0072424254
0.0070840252
0.0070061295
0.007014781
0.0070740448
0.0071030659
0.0070890812
0.0070934234
0.0071566263
0.0072553081
0.0073709977
0.0074951925
0.0076235978
0.007741882
0.0078412594
0.0079189596
0.0079766036
0.0080145656
0.0080307524
0.0083890306
0.0082338927
0.0081045427
0.0079736249
0.0078745377
0.0077586618
0.0075552053
0.0073803118
0.0071995805
0.0070007073
0.0068815416
0.0068812712
0.0069620627
0.0070330766
0.0070731081
0.0071067019
0.0071575108
0.0072245603
0.0073128725
0.007423053
0.0075497155
0.0076733494
0.0077787187
0.0078636252
0.0079286984
0.0079715023
0.0079860296
0.0079869406
0.0082230204
0.0081000301
0.0079954709
0.0078963921
0.0077914989
0.0076161212
0.0074904824
0.0073978121
0.0072072862
0.0069499721
0.0067998468
0.0068034449
0.006910208
0.00697583
0.0070286923
0.007090812
0.0071327907
0.007167115
0.0072178057
0.0073091821
0.0074319931
0.0075601656
0.0076850798
0.0077909521
0.0078704866
0.0079195141
0.0079376127
0.0079440094
0.0081613449
0.0080842721
0.0079889889
0.0078804198
0.0077118692
0.0075366752
0.0074292625
0.0073264281
0.0071074288
0.0068632263
0.0067588077
0.006806214
0.0069165157
0.0070024255
0.0069990316
0.0070560512
0.0070911806
0.0070990733
0.0071329794
0.007223007
0.0073446554
0.0074696991
0.0075976508
0.0077132076
0.0077925137
0.0078409564
0.0078697389
0.0078881832
0.008181648
0.0081146356
0.0080343482
0.0079168583
0.0077421817
0.0075368155
0.0073523957
0.007170727
0.0069676889
0.0068300872
0.006822931
0.0068952345
0.0069525097
0.0070284977
0.0069681921
0.0070049149
0.0070660316
0.0070764888
0.0070995889
0.0071823955
0.0073041222
0.0074377106
0.0075684988
0.0076721064
0.0077402196
0.0077815525
0.0078185003
0.007848554
0.0082278395
0.0081873246
0.0081167391
0.0080054014
0.0078676223
0.0076739429
0.0074563824
0.0072478496
0.0070809723
0.007006362
0.0069988781
0.0069581249
0.0068811862
0.0068546679
0.0068580688
0.0069275192
0.0070371789
0.0071016975
0.007135174
0.0072061394
0.0073282265
0.0074657637
0.0075878626
0.007682794
0.0077551701
0.0077972849
0.0078320664
0.0078812316
0.0082656093
0.0082461167
0.0081796361
0.0080817798
0.0079712472
0.007843187
0.0076815598
0.0074936054
0.0073239636
0.0071946773
0.0070704326
0.006918205
0.0068061056
0.0067780946
0.0067827315
0.0068567079
0.0070021617
0.0071454256
0.007217286
0.0072898144
0.0074002958
0.0075255246
0.0076473123
0.007764918
0.0078861206
0.0079599568
0.0079701215
0.0079679355
0.0082891811
0.0082848848
0.0082371326
0.0081532639
0.0080508821
0.0079220704
0.0077685014
0.0075928419
0.0074163768
0.0072473698
0.0070683944
0.0069108716
0.0068555353
0.0068538403
0.0068172136
0.0068444852
0.0069889742
0.0071851729
0.007314348
0.0073880412
0.0074870906
0.0076115928
0.0077571653
0.0079332548
0.0081488217
0.0082906086
0.0082309016
0.0083219323
0.0082936135
0.0082293358
0.0081377628
0.0080121954
0.0078535746
0.0076711765
0.0074866204
0.00731127
0.0071186332
0.0070023372
0.0070241705
0.0070570654
0.0069634437
0.0069126797
0.0070282212
0.0072456531
0.0074300396
0.0075043605
0.0076040315
0.0077432579
0.007925329
0.008159699
0.0084300067
0.0085920416
0.0084287322
0.0083741645
0.0083711006
0.0083266444
0.0082537863
0.0081410789
0.0079814205
0.0077929832
0.0076067347
0.0074413361
0.0072559942
0.007139036
0.007182818
0.0072349721
0.0071232503
0.0070296362
0.0071240387
0.0073521825
0.0075682333
0.007639078
0.0077457063
0.0078997553
0.0081026011
0.0083270731
0.008492076
0.0085212938
0.0084881408
0.0084660395
0.0084557177
0.0084142857
0.0083207075
0.0081690549
0.0079704409
0.0077762722
0.0076004831
0.0074581767
0.0073033414
0.0072496585
0.0072615026
0.0071908584
0.0071453421
0.0072631879
0.0075000856
0.0077101716
0.0077792908
0.007895304
0.0080649236
0.008283292
0.0085000321
0.0086047287
0.0085367809
0.0085227213
0.0085781815
0.0085973254
0.0085499804
0.0084172462
0.0082105969
0.0079960265
0.007774526
0.0076199941
0.0074957571
0.0073342634
0.007246709
0.0072141744
0.007259933
0.0074257237
0.0076591082
0.0078262765
0.0078975326
0.0080154476
0.0081755961
0.0083541972
0.0084854697
0.008544209
0.0085593002
0.0086758774
0.0087563862
0.0087907209
0.0087057536
0.0085166553
0.008296549
0.0079931608
0.0077753152
0.0076274553
0.0075045341
0.0073534195
0.0073173715
0.0074062268
0.0075931375
0.007795923
0.0079085543
0.0079836872
0.0080915214
0.0082217072
0.0083470517
0.0084327257
0.0084898835
0.0088523907
0.0089590177
0.008979653
0.0088530538
0.0087002647
0.0082979833
0.0079522922
0.0077310862
0.0076288548
0.0075333589
0.0074964372
0.0075807688
0.007740865
0.0078859735
0.0079659509
0.0080378738
0.0081292524
0.008222673
0.0083083638
0.0083706869
0.0090168615
0.0091217093
0.0091023177
0.009151673
0.008690047
0.0081757825
0.0078418861
0.007689505
0.0076492348
0.007655504
0.0077265911
0.0078400268
0.0079375379
0.0080060852
0.0080659486
0.0081398444
0.0082065123
0.0082657879
0.0090889529
0.0091242381
0.0093759079
0.0089470859
0.0083461103
0.007941136
0.0077613078
0.007710802
0.0077350895
0.0078027921
0.0078903022
0.007969104
0.0080239298
0.0080620468
0.0081209461
0.0081648567
0.0090770882
0.0088332656
0.0084649609
0.0080798184
0.0078830523
0.0078001041
0.0077938178
0.007839961
0.0079076475
0.0079788889
0.0080202803
0.0080528288
0.0081614556
0.0079715911
0.0078660241
0.0078331411
0.0078479711
0.0079003977
0.0083292777
0.008289668
0.0082701585
0.0082182786
0.0081896234
0.0081409299
0.0081046967
0.0081929566
0.0084497047
0.0084492128
0.0083506708
0.0083039726
0.0082594437
0.0082272975
0.0081822908
0.0081228665
0.0080255765
0.0079793311
0.0080947102
0.0083821078
0.0086594237
0.0086408404
0.0086370822
0.0086064373
0.0085363475
0.0084244629
0.0083266478
0.0082449703
0.0081870851
0.0081459812
0.0081111265
0.0080632312
0.0079792519
0.0079398541
0.0080338742
0.0082716947
0.0086028674
0.0085483157
0.0086517513
0.0086087943
0.0087365362
0.0086301776
0.0085220222
0.0083756317
0.0082531469
0.0081565052
0.0080936339
0.0080495037
0.0080042829
0.0079481265
0.0078793044
0.0078479292
0.0078992858
0.0080384299
0.0083026818
0.008403289
0.0085675137
0.0085309921
0.0085169234
0.0088910754
0.0088003065
0.008660459
0.0084733842
0.0083032194
0.0081625723
0.0080545907
0.0079878523
0.0079379069
0.0078782411
0.0078046802
0.0077549164
0.0077509265
0.0077992348
0.0078845102
0.0080573651
0.0081857954
0.0083600733
0.0084453814
0.0084107762
0.0084029298
0.0090498353
0.0089908655
0.008855815
0.0085985574
0.0083769552
0.0081917639
0.0080399589
0.0079249266
0.0078551638
0.0078006324
0.0077232981
0.0076246642
0.0075834479
0.0076033829
0.0076737117
0.0077552241
0.0078798014
0.0080034258
0.0081598926
0.0082623268
0.0083141424
0.0082920083
0.0083014442
0.0092024834
0.0090517733
0.0087519058
0.0084679018
0.0082406295
0.0080545163
0.0078938803
0.0077734135
0.0077017049
0.0076461564
0.0075578661
0.0074383895
0.0073960161
0.0074238032
0.0075184277
0.0076230252
0.0077390019
0.0078557826
0.0079939432
0.0081038014
0.0081790674
0.0082145748
0.0082233217
0.0081891357
0.0092534254
0.0090973513
0.0088674879
0.0085282269
0.0082687913
0.0080667832
0.0078776927
0.0077073603
0.0075873781
0.0075248425
0.0074817827
0.007404299
0.0072834414
0.0072352179
0.0072628822
0.0073578694
0.007482009
0.0076112924
0.0077323329
0.0078653068
0.0079761895
0.0080611618
0.0081125819
0.0081458541
0.008153973
0.0092341663
0.0091391389
0.0087126128
0.0083606636
0.0081150393
0.00790933
0.0076791936
0.0074879649
0.0073722498
0.0073277372
0.0073155061
0.0072739475
0.0071796273
0.0071260293
0.0071501155
0.0072435545
0.0073675337
0.0075057929
0.0076347937
0.0077682024
0.0078835837
0.007974002
0.0080341919
0.0080807897
0.0080886198
0.0080979377
0.0089965451
0.0088355427
0.0086513716
0.0083161034
0.0080984633
0.007920244
0.0076822966
0.0074252878
0.0072447598
0.007145409
0.0071191165
0.0071423215
0.0071606127
0.0071235583
0.00708287
0.0071044465
0.0071897091
0.007304674
0.0074370659
0.0075692325
0.0077023968
0.0078180752
0.0079133265
0.0079794624
0.0080325381
0.0080583842
0.0080831125
0.0086834334
0.0083476044
0.0082390023
0.0080513873
0.0079168813
0.0077247023
0.0074486515
0.0072081815
0.0070510749
0.0069604424
0.0069391696
0.0069776115
0.0070482454
0.0070727246
0.007075654
0.0071014199
0.0071761344
0.0072707452
0.0073827605
0.0075070308
0.0076400776
0.0077609122
0.007863001
0.0079375328
0.0079962714
0.0080296136
0.0080368398
0.0083676206
0.0080774172
0.008013088
0.0078953575
0.0077570099
0.0075206197
0.0072734363
0.00707585
0.0069466115
0.0068432086
0.0068165076
0.0068589515
0.0069618314
0.0070208882
0.0070607634
0.0071110847
0.007165196
0.0072165874
0.0072936251
0.0073972077
0.0075279787
0.0076638435
0.0077877676
0.0078800382
0.0079471522
0.0079828066
0.0079900531
0.0079855176
0.0082054638
0.0080094022
0.0079462556
0.0078192047
0.0076239431
0.0073874856
0.0071976777
0.0070586616
0.0069144765
0.0067819849
0.006754552
0.0067985271
0.0069066295
0.0069758023
0.0070243915
0.007079937
0.0071119033
0.0071390297
0.0071842077
0.0072687987
0.0073957679
0.0075355255
0.0076734347
0.0077830695
0.0078610144
0.0078914588
0.0079286069
0.0079304474
0.0081337094
0.0080579779
0.0079616584
0.0078049012
0.0075868278
0.0073612414
0.0071808632
0.0070249815
0.0068741502
0.0067637088
0.006762416
0.0068359864
0.0068895741
0.0070099418
0.0069849637
0.0070344079
0.007068348
0.0070689194
0.007095202
0.0071870303
0.0073139986
0.007454745
0.0075966074
0.0077059434
0.0077771691
0.0078098699
0.0078271821
0.0078675553
0.0081780205
0.0080935116
0.0080230561
0.007870276
0.0076628793
0.0074278772
0.0072147959
0.0070228201
0.006897396
0.0068366565
0.0068554392
0.0068792707
0.0069253694
0.0070245176
0.0069675312
0.0069984981
0.0070492126
0.0070609872
0.0070807205
0.007165448
0.0072939987
0.0074418568
0.0075761613
0.0076626584
0.007722305
0.007731677
0.0077869505
0.0078292466
0.0082289467
0.0081929271
0.0081215141
0.0079956307
0.0078313231
0.007618027
0.0074027258
0.0072167279
0.0070907698
0.0070160826
0.0069543787
0.0068640518
0.0067920818
0.0067820447
0.0068106364
0.0069097548
0.0070225333
0.0070933594
0.0071378709
0.0072161512
0.0073444999
0.0074819854
0.0075971387
0.0076693366
0.0077360313
0.0077433942
0.0077878977
0.0078393889
0.008276681
0.0082573956
0.0081907795
0.0080844324
0.007967716
0.007816176
0.007640251
0.0074525749
0.0072854687
0.0071314437
0.0069713309
0.0068037662
0.0067129108
0.0067037194
0.0067419508
0.006848914
0.0070082445
0.0071463807
0.0072314295
0.0073166411
0.0074312449
0.0075509529
0.0076608917
0.0077531939
0.0078790949
0.007911098
0.0079307639
0.0082930764
0.0082931425
0.0082446284
0.0081532961
0.0080487214
0.0079100097
0.0077463593
0.0075602274
0.0073739785
0.0071745348
0.0069596132
0.0067842595
0.0067057589
0.0067107259
0.0067331104
0.0068247115
0.0070050249
0.007199374
0.0073292068
0.0074141124
0.0075181428
0.0076359229
0.007764937
0.007913052
0.0081320745
0.0082053475
0.0081987474
0.0083215235
0.0083022577
0.0082284805
0.0081385566
0.0080071037
0.0078428923
0.0076517635
0.0074610529
0.0072458497
0.0070164333
0.0068481629
0.0068004162
0.0068219922
0.0068152183
0.0068744669
0.0070532089
0.0072810384
0.0074508371
0.0075367383
0.0076453062
0.0077817179
0.0079567702
0.0081850309
0.0084503161
0.0084977338
0.0083970577
0.0083783517
0.0083831601
0.0083326712
0.0082577642
0.0081375167
0.0079766256
0.0077844713
0.0075996816
0.0073921961
0.0071560143
0.0069711367
0.0069121625
0.0069360332
0.0069253443
0.0069742726
0.0071532916
0.0073987561
0.0075878761
0.0076714572
0.0077815083
0.0079240679
0.0081039013
0.0083022401
0.0084040674
0.0084697752
0.0084522796
0.0084358831
0.0084859695
0.0084729713
0.0084220644
0.008317359
0.0081598894
0.007956855
0.0077734212
0.007580471
0.0073744276
0.0071617919
0.0070425412
0.0070348514
0.0070436831
0.0071159631
0.0073033793
0.0075541848
0.0077358394
0.0078203055
0.0079417867
0.0081049273
0.008305979
0.0084990308
0.0085275648
0.0084990833
0.008518117
0.0085834137
0.0086129575
0.0085408862
0.0083992585
0.0081736374
0.007972129
0.0077553502
0.0075788828
0.0073877133
0.0072061218
0.0071439963
0.0071699763
0.0072789447
0.007475483
0.0077094748
0.0078557202
0.0079365528
0.0080555413
0.0082000375
0.008368414
0.0084503011
0.0085146089
0.0086693098
0.0087524804
0.0087952462
0.008678504
0.008447753
0.0082360966
0.0079341965
0.0077363905
0.0075704894
0.0074131171
0.0073172587
0.0073363886
0.0074567188
0.0076463922
0.007840187
0.0079457063
0.0080202871
0.0081236982
0.0082430124
0.0083406543
0.0084169485
0.0084591753
0.0088257396
0.0089242259
0.0089605821
0.0087633588
0.0085981409
0.008159739
0.0078616605
0.0076720155
0.0075670825
0.0075001548
0.0075167379
0.0076258468
0.0077812349
0.0079243132
0.0080006197
0.008062077
0.0081509541
0.0082246636
0.0082993402
0.0083464037
0.0089800145
0.009076505
0.0089623776
0.0090131069
0.0085094398
0.0080526496
0.0077698258
0.0076598344
0.0076378321
0.0076712346
0.0077606028
0.0078753817
0.0079817418
0.0080423201
0.0080899066
0.0081592203
0.0082056211
0.0082513178
0.0090425195
0.0090713581
0.0090633621
0.0086387943
0.0081398074
0.0078152404
0.0076891549
0.0076753233
0.0077236921
0.0078114044
0.007906505
0.0079922865
0.0080365163
0.0080608314
0.0081308524
0.0089806007
0.0088263337
0.0084258949
0.0080390739
0.0078516858
0.007780687
0.0077806621
0.0078317726
0.007906775
0.0079818579
0.0080322682
0.0080519909
0.0080917144
0.0079476257
0.0078562565
0.0078295384
0.0078514952
0.0083404429
0.0082982274
0.0082754826
0.0082120501
0.0081748316
0.0081206353
0.0080661196
0.0081058587
0.0083309161
0.008445955
0.0083491761
0.008307211
0.0082611454
0.0082206957
0.0081602779
0.0080839404
0.0079607933
0.0078856075
0.0079778215
0.0082367471
0.0085091107
0.0085738482
0.008576262
0.0085912376
0.0085323876
0.0084228176
0.0083270897
0.0082462206
0.0081845374
0.0081362694
0.0080907097
0.008029005
0.0079252608
0.0078594756
0.0079348267
0.0081451933
0.0084517059
0.0084659532
0.0085843008
0.0085465543
0.0087084793
0.0086109173
0.0085177567
0.0083719818
0.0082503852
0.0081528767
0.0080869374
0.0080379103
0.0079844057
0.0079175459
0.0078340348
0.0077807537
0.0078136974
0.0079352929
0.0081888391
0.0083423293
0.0085149968
0.0084790179
0.0084808203
0.0088394285
0.0087667012
0.0086478893
0.008464403
0.0082961612
0.0081572522
0.0080477253
0.0079784541
0.007924508
0.0078596879
0.0077794651
0.0077218869
0.0077018613
0.0077353488
0.0078078469
0.0079734053
0.0081314774
0.0083158354
0.0084246903
0.0083844915
0.0083823205
0.0089625996
0.0089238117
0.0088301267
0.0085722946
0.0083557905
0.0081755533
0.0080273044
0.0079130147
0.0078422051
0.0077841892
0.0077039647
0.0076017696
0.0075567482
0.0075674649
0.0076274631
0.0077009375
0.0078213126
0.0079605147
0.0081262257
0.0082411636
0.0083032664
0.008277871
0.0082935152
0.0091126329
0.0089817028
0.0086903117
0.0084178011
0.0082006297
0.0080253017
0.0078726829
0.0077567663
0.0076844916
0.0076260067
0.0075363999
0.007415591
0.0073717158
0.007394054
0.0074859385
0.007582873
0.0076981047
0.0078250882
0.0079702281
0.0080887223
0.0081712071
0.0082110466
0.00822086
0.0081773933
0.0091217528
0.0089658797
0.0087713424
0.0084459625
0.0082036685
0.0080156851
0.007840899
0.0076820253
0.0075662489
0.0075014131
0.0074559847
0.0073787988
0.0072606549
0.007212519
0.0072356069
0.007332077
0.0074532485
0.0075803017
0.0077078994
0.0078471726
0.0079646663
0.0080553195
0.0081097229
0.0081461161
0.0081523733
0.009006163
0.0089018587
0.0085351344
0.0082317088
0.0080209557
0.0078381343
0.0076342126
0.0074580574
0.0073452867
0.0072976811
0.0072823088
0.0072418393
0.0071509336
0.0071005468
0.0071232478
0.0072201113
0.0073442944
0.0074810383
0.0076129479
0.0077505528
0.0078719089
0.0079676415
0.008030923
0.008080871
0.0080872359
0.0080947862
0.0088154348
0.0086118735
0.0084594375
0.0081549347
0.0079766614
0.0078274802
0.0076180884
0.0073833469
0.0072098814
0.0071110556
0.0070825789
0.0071033062
0.0071228062
0.007086649
0.0070524608
0.0070763813
0.0071636363
0.007280299
0.0074129112
0.0075470127
0.0076836365
0.0078046993
0.0079056919
0.0079754098
0.0080319941
0.0080585553
0.0080885484
0.0085260746
0.0081748636
0.0080875658
0.0079162719
0.0078113391
0.0076448312
0.0073907654
0.0071584346
0.0070031001
0.0069152053
0.0068964927
0.0069350789
0.0070078899
0.0070318692
0.0070380674
0.0070672407
0.0071454108
0.0072431394
0.0073585076
0.0074854485
0.0076223488
0.0077476187
0.0078547737
0.0079325994
0.0079934982
0.008026574
0.0080389263
0.0082981451
0.0079504482
0.0078948174
0.0077900012
0.0076762178
0.0074606868
0.0072155392
0.0070068194
0.0068785216
0.006785955
0.0067678577
0.0068148455
0.0069196577
0.0069785938
0.0070260851
0.0070750381
0.0071340831
0.0071898737
0.0072699677
0.0073741604
0.0075066512
0.0076462194
0.0077746613
0.007870519
0.0079388189
0.0079738526
0.0079777117
0.0079781528
0.0081771968
0.0079189442
0.0078645383
0.0077481399
0.0075751851
0.0073387064
0.0071360608
0.0069825509
0.0068387887
0.0067202036
0.0067055631
0.0067515115
0.0068696283
0.006941392
0.0069905972
0.0070499532
0.0070799127
0.0071087896
0.0071596877
0.0072462688
0.0073746337
0.0075168115
0.0076565702
0.0077639148
0.0078385404
0.0078629281
0.0078993129
0.0079118721
0.0081122095
0.0080121916
0.0079123483
0.0077615795
0.0075554663
0.0073217945
0.0071203194
0.0069525661
0.0068055394
0.0067083886
0.0067113465
0.0067812602
0.0068370091
0.0069730235
0.0069446702
0.0069951756
0.0070308099
0.0070368401
0.0070701337
0.0071630627
0.0072923597
0.0074350902
0.0075748358
0.0076777831
0.0077423925
0.007771273
0.0077974551
0.0078381827
0.0081736132
0.0080573923
0.0079927999
0.0078378177
0.0076332996
0.0073898117
0.0071735607
0.0069746523
0.0068513814
0.0067913766
0.0068014019
0.0068211562
0.006866742
0.0069860327
0.0069294106
0.0069582058
0.0070123405
0.0070273821
0.0070574466
0.0071449422
0.0072712223
0.0074176479
0.0075444962
0.0076187361
0.0076679866
0.0076610788
0.0077386552
0.0077967943
0.0082271855
0.0081767064
0.0081050647
0.0079726455
0.0078056219
0.0075889801
0.0073745248
0.0071870666
0.0070537324
0.0069651539
0.0068957311
0.0068059003
0.0067434666
0.0067348132
0.006767032
0.0068675451
0.00698443
0.0070550857
0.0071096568
0.0071937861
0.0073192555
0.0074495359
0.0075535268
0.0076100759
0.0076632091
0.0076502867
0.0077263542
0.0077917444
0.0082761753
0.0082498766
0.0081817544
0.0080675892
0.0079436957
0.0077816538
0.0075988243
0.0074060907
0.0072352872
0.0070764567
0.0069157661
0.0067540237
0.0066636076
0.0066536515
0.0066949531
0.0068050204
0.006967023
0.0071077023
0.0071961729
0.0072863453
0.0073992339
0.0075113102
0.0076085859
0.0076811458
0.0077936422
0.007799755
0.0078713888
0.0082953863
0.0082904781
0.008240248
0.0081415748
0.0080292252
0.0078800293
0.0077071071
0.0075145203
0.0073259419
0.007125638
0.0069182502
0.0067377968
0.006650286
0.0066491351
0.0066801894
0.0067768644
0.0069601931
0.0071592579
0.0072886415
0.0073772541
0.0074806121
0.00759109
0.0077031956
0.0078291157
0.0080310419
0.0080815519
0.0081526564
0.0083169072
0.0082992613
0.0082200089
0.0081244833
0.0079836971
0.0078094432
0.0076105721
0.0074163305
0.0072044829
0.0069839411
0.0068026454
0.0067274529
0.0067403621
0.0067480907
0.0068214093
0.0070090799
0.0072406677
0.0074073771
0.007497994
0.0076085575
0.0077373235
0.0078973331
0.0081075371
0.008355444
0.008381914
0.0083445803
0.0083752537
0.0083809429
0.0083258778
0.0082461992
0.0081175116
0.0079467099
0.0077449703
0.0075498033
0.0073435775
0.0071199981
0.0069249776
0.0068354559
0.0068473306
0.0068523766
0.0069185475
0.0071094308
0.0073578834
0.0075442218
0.0076346818
0.0077493373
0.0078861359
0.008056375
0.0082479062
0.0083313216
0.0084098448
0.0083871009
0.0084383096
0.0084808709
0.0084666848
0.0084092476
0.0082938416
0.0081229721
0.0079093333
0.0077107757
0.0075131372
0.0073173552
0.0071106636
0.0069842524
0.0069666228
0.0069830854
0.0070680643
0.0072646834
0.0075177958
0.0076997016
0.0077927045
0.0079191895
0.0080781668
0.0082699314
0.0084479983
0.008452464
0.0084516431
0.0085049252
0.0085643722
0.0085974677
0.0085102307
0.0083514167
0.0081118537
0.0078878356
0.0076682863
0.0074981077
0.0073235591
0.0071612431
0.007107837
0.0071347127
0.0072424475
0.0074442694
0.0076807858
0.0078320636
0.0079212355
0.0080450958
0.0081863749
0.0083531881
0.0084082637
0.0084812302
0.0086470881
0.0087182834
0.0087644932
0.0086162051
0.0083717802
0.008118481
0.007817205
0.007631055
0.007483785
0.0073606592
0.0072881526
0.0073136857
0.0074340865
0.0076259119
0.0078238402
0.0079354816
0.0080159771
0.0081211456
0.0082379351
0.0083226274
0.0083948546
0.0084206601
0.0087855432
0.0088565951
0.0088872263
0.0086783275
0.008440615
0.0080000263
0.0077251891
0.0075602558
0.0074855987
0.0074548973
0.0074903878
0.0076069255
0.0077663534
0.0079186461
0.0079984711
0.0080633299
0.0081535166
0.0082185345
0.0082918718
0.0083270007
0.0089201897
0.0089864789
0.0088495768
0.0088057591
0.008316282
0.0078959202
0.0076460768
0.007565018
0.0075783347
0.0076380876
0.0077430937
0.0078680567
0.00798482
0.0080462993
0.0080953771
0.0081615688
0.0082048611
0.0082402026
0.0089552555
0.0089751675
0.0088611896
0.0084228138
0.0079623897
0.0076765934
0.0075813253
0.0076059592
0.0076834471
0.0077923559
0.007897832
0.0079907645
0.0080379397
0.0080627281
0.0081355981
0.008855798
0.0087122434
0.0083312002
0.0079682454
0.0077940445
0.0077432438
0.0077557977
0.0078167849
0.0079006285
0.0079805372
0.0080350089
0.0080565611
0.0080211774
0.007914493
0.0078337707
0.0078154675
0.0078425985
0.008348652
0.0083039352
0.0082735228
0.0082035983
0.008163746
0.0081069204
0.0080290281
0.007996992
0.0081606256
0.008447898
0.0083524925
0.008312729
0.0082598265
0.0082061192
0.0081198034
0.0080142191
0.0078572984
0.0077547593
0.0078140526
0.0080400897
0.0083528008
0.0084783803
0.0084781124
0.0085770853
0.0085333235
0.0084288545
0.0083354674
0.0082515429
0.0081791328
0.0081146905
0.0080446866
0.0079547879
0.0078217584
0.0077264125
0.0077783602
0.0079528153
0.0082605181
0.0083311702
0.0084904265
0.0084607647
0.0086751052
0.0085917644
0.0085184759
0.0083761636
0.0082544766
0.0081507466
0.0080729041
0.0080086228
0.0079326369
0.0078421028
0.0077346115
0.0076555956
0.0076702169
0.0077679748
0.0080289322
0.0082313098
0.0084395879
0.0084095314
0.0084306866
0.008773607
0.0087243076
0.0086345347
0.0084605498
0.008296597
0.008156782
0.008039743
0.0079582646
0.007889333
0.0078057113
0.007710549
0.0076366152
0.0075951977
0.0076176372
0.0076791814
0.0078489218
0.0080358425
0.0082544531
0.0084008877
0.008354161
0.0083550451
0.0088518989
0.0088318154
0.0087941548
0.0085370724
0.0083333874
0.0081605018
0.0080129469
0.0078926482
0.0078112839
0.007739851
0.0076457538
0.0075385369
0.0074850154
0.0074765069
0.007527564
0.0076012831
0.0077311027
0.0078890531
0.0080842432
0.008220141
0.0082961764
0.0082664938
0.0082836254
0.008987083
0.0088758567
0.0085965387
0.0083457322
0.0081487388
0.0079875734
0.0078392011
0.0077212519
0.0076416308
0.0075724499
0.0074749154
0.007358863
0.0073117682
0.007321007
0.0074020964
0.0074971522
0.0076276439
0.0077729832
0.0079429634
0.0080789159
0.0081710039
0.0082143206
0.0082243675
0.0081797784
0.0089491724
0.0087684874
0.0086095188
0.0083071881
0.0080972295
0.0079347041
0.0077764982
0.0076267153
0.0075140142
0.0074448817
0.007392005
0.0073116824
0.0072062724
0.007161236
0.0071689379
0.0072633907
0.0073793686
0.007516734
0.0076625929
0.007824254
0.0079578194
0.0080578057
0.0081147077
0.0081541267
0.0081562263
0.0087736515
0.0086223311
0.0082984097
0.0080437226
0.0078790601
0.0077244101
0.0075449685
0.0073876411
0.0072827753
0.0072327614
0.0072095661
0.0071676134
0.0070874741
0.0070457806
0.0070621898
0.0071581477
0.0072786055
0.0074206592
0.0075661295
0.0077221256
0.0078588848
0.0079653193
0.0080324078
0.0080875163
0.0080893778
0.008097357
0.0085760784
0.0083286155
0.0081786194
0.0079041893
0.0077774469
0.0076647696
0.0074874321
0.0072863731
0.0071322897
0.0070410385
0.007012617
0.007026406
0.0070423088
0.0070111692
0.0069880076
0.0070134317
0.007099672
0.0072146863
0.0073517607
0.0074954126
0.0076461627
0.0077804559
0.007893487
0.0079692798
0.0080326032
0.0080580121
0.0080922078
0.0083176479
0.0079438576
0.00785535
0.0076974158
0.0076229163
0.0074830758
0.0072706204
0.0070564577
0.0069148426
0.0068387374
0.006825529
0.0068584135
0.0069281825
0.0069490406
0.0069614767
0.0069934532
0.0070739208
0.0071731499
0.0072947026
0.0074285005
0.0075757757
0.0077119714
0.0078306257
0.0079155571
0.0079825425
0.0080154214
0.0080336578
0.0081947377
0.0077755859
0.0077060028
0.0076019065
0.0075113318
0.0073300283
0.0071041183
0.0069032968
0.0067852529
0.0067074299
0.0066966892
0.0067405763
0.006840822
0.0068946595
0.0069476397
0.0069943799
0.0070584779
0.0071198345
0.0072093208
0.007320825
0.0074585461
0.0076022094
0.0077363524
0.0078370814
0.0079101833
0.0079471232
0.0079545532
0.0079592403
0.008125019
0.0077799611
0.0077143122
0.0076003821
0.0074545697
0.0072434068
0.0070500115
0.0068956642
0.0067575491
0.0066492683
0.0066405146
0.0066782041
0.0068075814
0.0068768346
0.0069241701
0.0069738978
0.0070050219
0.0070427304
0.0071068388
0.0072013039
0.0073312228
0.0074719882
0.0076100628
0.0077130375
0.0077870368
0.0078084141
0.0078579798
0.0078825692
0.0080697579
0.0079238154
0.007805551
0.0076557715
0.0074706122
0.007246819
0.0070482515
0.0068800139
0.0067345106
0.0066421938
0.0066423568
0.0066972935
0.0067631621
0.0068998483
0.0068795414
0.0069121696
0.0069510442
0.006971397
0.0070194735
0.0071173263
0.007246124
0.0073854145
0.0075163643
0.0076107497
0.0076726126
0.0077030847
0.0077601034
0.0078022298
0.0081585253
0.0079891871
0.0079190901
0.0077553912
0.0075569794
0.0073173839
0.0071050254
0.0069042744
0.0067809963
0.0067132501
0.0067097067
0.006722829
0.0067790321
0.0069083091
0.0068599688
0.0068774785
0.0069320415
0.0069596879
0.0070046942
0.0070962283
0.0072174313
0.0073562482
0.0074704645
0.0075313482
0.0075735941
0.007556914
0.0076816435
0.0077687127
0.0082255524
0.0081407173
0.0080610606
0.0079137935
0.0077410455
0.0075205071
0.0073066865
0.0071123654
0.006964986
0.0068636144
0.0067888249
0.0067062922
0.0066639182
0.0066615389
0.0066952175
0.006786676
0.0069014392
0.0069748189
0.0070416634
0.0071320279
0.0072532616
0.0073743132
0.0074666914
0.0075058037
0.0075458049
0.0075191658
0.0076486888
0.0077486409
0.0082711172
0.0082331397
0.008161633
0.0080322121
0.007895044
0.0077136999
0.0075168672
0.0073108146
0.0071319516
0.0069685179
0.0068144404
0.0066708496
0.0065969051
0.0065905469
0.006630121
0.006731141
0.0068883611
0.0070225887
0.0071175162
0.0072149223
0.0073275781
0.0074337041
0.0075164428
0.007560461
0.0076537755
0.0076405252
0.0077699521
0.0082969887
0.0082864237
0.0082363735
0.0081256957
0.0080029853