/*--------------------------------*- C++ -*----------------------------------*\
| =========                 |                                                 |
| \\      /  F ield         | OpenFOAM: The Open Source CFD Toolbox           |
|  \\    /   O peration     | Version:  2406                                  |
|   \\  /    A nd           | Website:  www.openfoam.com                      |
|    \\/     M anipulation  |                                                 |
\*---------------------------------------------------------------------------*/
FoamFile
{
    version     2.0;
    format      ascii;
    arch        "LSB;label=32;scalar=64";
    class       volScalarField;
    location    "400";
    object      epsilon;
}
// * * * * * * * * * * * * * * * * * * * * * * * * * * * * * * * * * * * * * //

dimensions      [0 2 -3 0 0 0 0];

internalField   nonuniform List<scalar> 
150387
(
0.00060962352
0.00017121057
0.00013831851
0.0001235909
0.00011505847
0.00011278989
0.00013310381
8.5481046e-05
0.0016814812
0.00035263595
0.00030405798
0.00027790099
0.00024611124
0.00021042286
0.00016893285
0.00013372428
0.00011806174
0.0001165493
0.00011964959
0.00028018696
0.0019154756
0.00054722946
0.00071557762
0.00076076839
0.00070260307
0.00059093835
0.00046820581
0.00036429988
0.00027913134
0.00020736313
0.0001515477
0.00012443231
0.0001501772
0.00035664632
0.00060532234
0.001026849
0.0010667812
0.0021855386
0.0010809338
0.0012406722
0.0011850737
0.0010457168
0.0008955997
0.00073777548
0.00058603883
0.00045187368
0.00034157402
0.00025533358
0.00018984901
0.00014934466
0.0001997789
0.00050216635
0.00054683427
0.00083058482
0.00092810248
0.00080869635
0.0031167252
0.0016191969
0.001733397
0.0016800813
0.0015049907
0.0012480572
0.00098127944
0.00075595051
0.00058468349
0.00044938219
0.00034446843
0.0002649542
0.00020543017
0.00016545242
0.00027886247
0.00062871191
0.0005865092
0.00078038522
0.00093368139
0.00092597192
0.00075156423
0.0018870504
0.0020360029
0.0019747407
0.0018470135
0.0016459987
0.0013879451
0.0011231616
0.00087371739
0.00066191753
0.0004935337
0.00036728939
0.00027569592
0.00021307348
0.00017389552
0.00038054734
0.00067799927
0.00063412343
0.00078146137
0.00090923179
0.00099788871
0.00087935345
0.00066397815
0.0023330371
0.0023011252
0.0021690627
0.0020310824
0.00184614
0.0016269645
0.0014125317
0.0011974963
0.00097432402
0.00075796435
0.00056631103
0.00041100337
0.00029497117
0.00021947198
0.00018172805
0.00048778647
0.0006489972
0.00066666197
0.0007772455
0.00086528986
0.00097410027
0.00089732506
0.00061427973
0.00044857613
0.0035898997
0.0023261625
0.002035832
0.0019474999
0.0018844176
0.001758665
0.0015951801
0.0014113216
0.0012080849
0.0009963863
0.00078964647
0.00060015967
0.00043840366
0.00031014763
0.00022329443
0.00019210855
0.00055582999
0.00059440564
0.0006797248
0.00075640399
0.00080961647
0.00087148016
0.00081526942
0.00066609289
0.00028851997
0.0032056876
0.0020126672
0.0017853551
0.0016733041
0.0015847579
0.0015047072
0.001414524
0.0012844407
0.0011181271
0.00092709966
0.00073495083
0.00056154245
0.0004138478
0.00029581442
0.00021542316
0.00020859283
0.00052324818
0.00053876607
0.00065770889
0.00071204586
0.00073202457
0.00072668141
0.00067371921
0.00065792498
0.00033174792
0.00025900186
0.0021677509
0.0017404524
0.0016662584
0.0016100984
0.0015211425
0.0013984023
0.0012416179
0.001066421
0.00090563212
0.00075050432
0.00059836654
0.00045773824
0.0003392666
0.00024935318
0.00019353114
0.00023078955
0.00042050655
0.00049168682
0.00060069896
0.00063702663
0.00062547452
0.00056734014
0.00054103785
0.00057577072
0.00031863386
0.00015992445
0.00070738115
0.0013547452
0.0017754049
0.0018335705
0.0017011759
0.0015072131
0.0013227396
0.0011573094
0.00096782394
0.00075699294
0.00057247925
0.00043791194
0.0003298418
0.00024763248
0.00019315314
0.0001610899
0.00024573412
0.00034174821
0.0004350128
0.0005166538
0.0005333629
0.00049563431
0.00043134588
0.00043033455
0.00046206613
0.00027835547
0.00013732307
0.00021385912
0.0003156486
0.00052278787
0.00074268586
0.00091489641
0.0010050076
0.00099004186
0.00090465428
0.00078491243
0.00063417658
0.00048286657
0.0003487089
0.00024966426
0.00018562655
0.00014704311
0.00013021778
0.00023873322
0.00028294332
0.00036224951
0.00041632977
0.00041649937
0.0003712509
0.00032585064
0.0003372146
0.00035202034
0.0002303108
0.00011445617
0.00039380906
0.00012088632
0.00013688244
0.00017408843
0.00021753223
0.00024051113
0.00025177702
0.00026408215
0.0002799632
0.00028938538
0.00028371791
0.00025947571
0.00022237968
0.00018011357
0.0001704286
0.00014144938
0.00010988691
0.00020492681
0.00023116878
0.00028356583
0.00031721622
0.0003086143
0.0002731265
0.00025020524
0.00025910488
0.00026283309
0.00019030882
9.4064146e-05
0.00015365111
0.00013456824
0.00014261334
0.00022454833
0.00028598846
0.00030483611
0.00031976302
0.00034318905
0.00035650711
0.00033651205
0.00028524658
0.00022033604
0.00015397323
0.00012784264
0.00017679422
7.3514338e-05
0.00012096686
0.00016386771
0.00018753667
0.0002171599
0.0002340656
0.00022493255
0.00020522442
0.00019603535
0.00019867378
0.00019807367
0.00014906582
7.9642258e-05
0.00013184434
0.00013633929
0.0001782582
0.00030911947
0.00039055799
0.00039567563
0.00042815383
0.00048479892
0.00051626336
0.00048942831
0.00040679576
0.00029619299
0.00019535173
0.00015710036
8.8540938e-05
0.00011831758
0.00012116797
0.00013082192
0.00015126311
0.00016850009
0.00017676265
0.00017255793
0.00016340421
0.00015866503
0.00015490582
0.00014819166
0.0001114595
7.3738649e-05
0.00011589782
0.00014571878
0.00021705094
0.00041269051
0.00052635672
0.00052547412
0.00058501388
0.00067240263
0.0007107005
0.00067371072
0.00056293437
0.00041109834
0.00027843632
0.00021476337
0.00013402179
0.00013196156
0.00017406712
0.00021312696
0.00024514816
0.00024904672
0.00022126799
0.00017974929
0.0001512201
0.00013734081
0.00012751706
0.00011295292
8.5902134e-05
7.0433735e-05
0.00016125106
0.00025264801
0.00024953101
0.00053929816
0.00068331554
0.00069112415
0.0007923335
0.0008962229
0.00093091365
0.00088176844
0.00073865017
0.00054411579
0.00039373969
0.00031474453
0.00018042919
0.00016070103
0.00020674202
0.00025903378
0.00032324301
0.00041804419
0.00053894112
0.00061190681
0.00055278229
0.00039396188
0.00023443154
0.00014128396
8.860823e-05
8.075607e-05
6.5957922e-05
0.00062056191
0.00027966007
0.00066605995
0.00085175223
0.00090834772
0.0010493506
0.001145235
0.0011690853
0.0011043699
0.00091534747
0.00069030089
0.00055729847
0.0004379648
0.00021641085
0.00020485398
0.00027285706
0.00035249161
0.00041736827
0.00047277424
0.00056318751
0.00067321497
0.00075565259
0.00080863527
0.00076970885
0.00061138593
0.00037748888
0.00019383821
0.00031365886
0.00075403853
0.0010161772
0.0011823674
0.0013444886
0.0013989608
0.0014073502
0.0013142156
0.0010800098
0.00088147141
0.00075634294
0.0005566228
0.00023257032
0.00024152105
0.00033425764
0.00044141324
0.00054034272
0.00060584233
0.00064136769
0.00066809876
0.00069848604
0.00070166915
0.00065716148
0.00060567396
0.00057494106
0.00067002267
0.00037621624
0.00075677713
0.0011701923
0.0014852365
0.0016582254
0.0016526395
0.0016272655
0.001486857
0.0012354936
0.0011029371
0.00093611204
0.00066906748
0.00022528502
0.00025761372
0.00036232146
0.00048471214
0.00060987718
0.00071489086
0.00078238988
0.00080556653
0.000794081
0.00077060703
0.00072837083
0.00069995644
0.00096551541
0.001943898
0.00063321927
0.0012865824
0.0017334837
0.0019384241
0.0019136277
0.0018291793
0.0016113365
0.0014006066
0.0013010979
0.001080256
0.00072358653
0.00020293061
0.00024375692
0.00034489811
0.00047350879
0.00061169885
0.00073771271
0.00083424835
0.00090161106
0.00095045828
0.00096438907
0.00097510261
0.0010324061
0.001015887
0.00040909454
0.0012315158
0.0018719453
0.0021339249
0.0021456211
0.0020048517
0.0016914692
0.0015462608
0.0014333695
0.0012390473
0.00066533788
0.00018252889
0.00021889535
0.00029843268
0.00041890378
0.00056888517
0.00072367537
0.00086305009
0.00098303903
0.0010623802
0.0011020189
0.0010771151
0.00090698415
0.0012118824
0.00097603866
0.0018290432
0.0022258412
0.0023101529
0.0021203859
0.0017622227
0.0016485038
0.0015287797
0.0014322128
0.00050957812
0.00017257426
0.00020783675
0.00026562681
0.00035722717
0.00049231814
0.00067487907
0.00087156608
0.0010445369
0.0011576077
0.0011353464
0.00095521389
0.00058363665
0.0015578828
0.0021377092
0.0024075982
0.0021650505
0.0018408129
0.001726805
0.0016233955
0.0014555524
0.0003529062
0.00016599142
0.0002074579
0.00027417659
0.00036237371
0.00046869551
0.00060269091
0.00076324534
0.00090788992
0.00095576914
0.00087168702
0.00061685759
0.0015545767
0.0024052103
0.0022873192
0.0019472748
0.0017806188
0.0016695392
0.0012374629
0.00024187044
0.00015131597
0.00020243949
0.00027662166
0.00037688326
0.00049207758
0.00059627328
0.00065104681
0.00062497362
0.00056421762
0.00062570364
0.0021566092
0.0024709573
0.0024095623
0.0019200211
0.0016280505
0.00078611823
0.0001597794
0.00011347586
0.00014798324
0.00018800289
0.00022770145
0.00026931087
0.00029221262
0.00027805173
0.00023632764
0.0006995483
0.0045253813
0.0025648931
0.0014337989
0.00031658184
0.0001064412
7.9850719e-05
7.9636614e-05
9.107201e-05
0.00010892335
0.00012790828
0.00016226587
0.00034221129
0.00030392833
0.00034229938
8.0811795e-05
0.00011156611
0.00013846858
0.0004077294
0.00088345006
0.00029535754
0.00014895403
0.00011778228
8.981227e-05
6.8704674e-05
6.3240999e-05
4.7424149e-05
7.3342283e-05
0.00079245825
0.0008776392
0.00090415865
0.00085629967
0.00075267635
0.0005845925
0.00041387507
0.00026742051
0.00015676753
8.9318975e-05
5.8378043e-05
0.00038810364
0.0022266149
0.0035520958
0.0022929245
0.0015312498
0.0017390543
0.0017638723
0.0016266829
0.0013928696
0.001136855
0.00088734402
0.00065996663
0.00046221408
0.00030167898
0.00018516291
9.7842452e-05
0.00013915284
0.00059863976
0.0015944903
0.0017540907
0.0028430557
0.0025935283
0.0025041817
0.0022953724
0.0020052873
0.0017049398
0.0014229627
0.0011604037
0.00092422166
0.00071613503
0.00053476235
0.00038111933
0.00025392956
0.00015663602
0.00012256997
0.00026869358
0.00082023057
0.0014865117
0.0018211963
0.0038883067
0.0030922174
0.0027718386
0.002470993
0.0021662308
0.0018595947
0.0015611997
0.0012803623
0.0010293964
0.00081818028
0.00064326246
0.00049754073
0.00037734461
0.00027055435
0.00020217483
0.00016640498
0.00020806356
0.00051757239
0.0010844673
0.0015294767
0.0015874737
0.0064405488
0.0035011491
0.00282135
0.0023769571
0.0020636774
0.0018272741
0.0016004573
0.0013591659
0.0011119461
0.00088177557
0.00068813707
0.00053562498
0.00041786489
0.00032812586
0.00024982605
0.00024134124
0.00026329793
0.00027786248
0.00045619689
0.00088473945
0.0013247204
0.0014856877
0.0012207337
0.0039055563
0.0026513578
0.0020599218
0.0017915474
0.0016782602
0.0015816049
0.0014292924
0.0012248527
0.0009993689
0.0007838576
0.00060015858
0.00045625206
0.00035059273
0.00027699154
0.00021806353
0.00029167103
0.00040558629
0.00043011972
0.0005274728
0.00080482463
0.0011927262
0.0014100173
0.00096871232
0.0011263611
0.0042818831
0.0025369363
0.001704395
0.001388908
0.001367943
0.0014304633
0.001437741
0.0013350493
0.0011471881
0.0009287577
0.00072166311
0.00054686129
0.00040949519
0.00030908217
0.00023783304
0.00019368835
0.00033967789
0.00051693075
0.00057761962
0.00062998924
0.00079118625
0.0010878457
0.0013063575
0.0010966132
0.00068210761
0.002575296
0.0011503515
0.00075349406
0.00085063181
0.0011486809
0.001377783
0.001398122
0.0012885479
0.0010774266
0.00084844025
0.00064760798
0.00048745553
0.00036460062
0.00027423987
0.00020366
0.00018011416
0.00035988563
0.00055940861
0.00064403269
0.00067858238
0.00077487971
0.00098704764
0.0011755583
0.0011307967
0.00059334888
0.00039368773
0.0039039148
0.00085534042
0.0003549046
0.00043078275
0.00069657788
0.0010389741
0.0012626393
0.0012844481
0.0011632193
0.00094560028
0.00071157925
0.00051816857
0.00038056088
0.0002855462
0.00021868884
0.00016166065
0.00016912943
0.00033915282
0.00053379727
0.00061767195
0.00064585248
0.0007173223
0.00087413357
0.0010338327
0.0010572124
0.00061963024
0.00020091606
0.00010359374
0.00012344158
0.00024988383
0.00043242801
0.00063645927
0.00080048096
0.00087182343
0.00086595799
0.0007906886
0.00065852619
0.00049682395
0.00034665145
0.00023673894
0.00017143786
0.00013713148
0.00011224721
0.0001534593
0.0002934792
0.00045816549
0.00052619836
0.00055518758
0.00061859135
0.00074733431
0.00088601168
0.00091459118
0.00058722645
0.00018468666
0.00010253661
0.00015772301
0.00031400276
0.0004062405
0.00043156604
0.00042860743
0.00041190866
0.00038348979
0.00034996721
0.00030877081
0.00025147215
0.00018635402
0.00012880188
8.9700433e-05
7.3221066e-05
7.5021086e-05
0.0001287122
0.00024129891
0.00036234867
0.00041325491
0.00044243463
0.00050385833
0.0006187111
0.00073731321
0.00075120185
0.00051052169
0.00016010082
0.00038916176
6.4002529e-05
0.0002641412
0.00046641197
0.00054467726
0.00050324629
0.00041794912
0.00034318671
0.00029191894
0.00024884113
0.0001990056
0.00014361689
9.8522863e-05
8.4713496e-05
5.9413088e-05
4.350032e-05
6.2960597e-05
0.00010566922
0.00019303501
0.00027262246
0.00030795703
0.00033688453
0.00039919179
0.00050219498
0.00059564054
0.00058730977
0.00039033708
0.00012008968
0.00014388091
0.00010913048
0.00041176191
0.00067405512
0.0007509859
0.00067728733
0.0005649378
0.00047818978
0.00042383206
0.00037341724
0.00029804113
0.00019267007
9.81127e-05
4.3491901e-05
7.2433851e-05
4.3138808e-05
6.1657415e-05
9.2585945e-05
0.00015233952
0.00020016725
0.00022566014
0.00025619605
0.00031700234
0.00040186974
0.00046264349
0.00042882941
0.00026808599
7.8676067e-05
0.00011006271
9.3414758e-05
0.00060234855
0.00093119532
0.00098365913
0.00087385016
0.00073133807
0.00062948144
0.00056627352
0.00050534633
0.00040837949
0.00026645404
0.00013780918
6.759918e-05
3.2975912e-05
4.7771864e-05
6.4772979e-05
8.234372e-05
0.00011184195
0.00013897433
0.00016373825
0.00020038421
0.00025616188
0.00031647142
0.00034384617
0.00029399397
0.00017162349
6.1870853e-05
9.4927197e-05
0.00012652913
0.00077923698
0.0012067317
0.0012504586
0.0011141655
0.00094820975
0.00082870493
0.00075180447
0.0006759756
0.00055470473
0.00038662775
0.00022557963
0.00012212608
7.2659548e-05
7.5814719e-05
9.5553785e-05
0.00012559318
0.00015356681
0.0001654843
0.00016872612
0.00017763803
0.0002053947
0.00023843826
0.00024300709
0.00019086875
0.00010155506
3.7238876e-05
0.00010686568
0.0001957519
0.00088778701
0.0014929862
0.001549033
0.0013980908
0.001206908
0.0010651279
0.00097351404
0.00088818546
0.00075348286
0.00057236824
0.00036018817
0.00017666785
0.00010733722
0.00013699741
0.00017869855
0.00023939144
0.00031626356
0.00037422129
0.00037961264
0.00033340965
0.00026606952
0.00020865476
0.0001659821
0.00011463463
5.5178767e-05
2.7748796e-05
0.00037670955
0.00093646182
0.0017544402
0.0018686444
0.001718077
0.0014910041
0.0013170547
0.0012135907
0.0011324446
0.0010043985
0.00080727539
0.00050482837
0.00022662386
0.00014748079
0.00021873234
0.00029966162
0.00039562211
0.0005000181
0.00057902588
0.00058646962
0.00049073277
0.0003299307
0.00019860752
0.00012572606
9.2345266e-05
8.5173746e-05
3.3066587e-05
0.0008954622
0.0019013547
0.0022031443
0.0020660647
0.0017777187
0.0015565529
0.0014362869
0.001373382
0.0012625834
0.0010238888
0.00061425218
0.00025987054
0.00018067504
0.00027697274
0.00038146822
0.00050032126
0.00061421942
0.00068199369
0.00066572663
0.00052643679
0.00032456433
0.00019308183
0.00014539083
0.00020549387
0.00060125314
0.00056877765
0.00045008278
0.0018506511
0.0025172061
0.0024265926
0.0020552737
0.0017568211
0.0015946143
0.0015423209
0.0014332891
0.0011384693
0.00066239501
0.00027767227
0.00020801895
0.00031078494
0.00042401639
0.00055211842
0.00066781754
0.00073031796
0.00069758719
0.0005712486
0.00042374587
0.00036152944
0.00045832664
0.0007946666
0.001029414
0.004403738
0.0017799835
0.0015749039
0.002719176
0.0027728609
0.0023447238
0.0019172841
0.00166032
0.00157741
0.0014338366
0.0010913437
0.00064268993
0.00028475887
0.00024926238
0.00035009014
0.00046746402
0.00060320874
0.00072537988
0.00080118615
0.00080782636
0.00075695161
0.00072167647
0.00079354422
0.0010531133
0.0016740139
0.0021094636
0.00090720025
0.0027404815
0.0030699568
0.0026997297
0.0020964549
0.0016791526
0.0014773969
0.0012161315
0.0008864262
0.00055485819
0.00029315269
0.00032205321
0.000424523
0.00054895675
0.00069789215
0.00084172721
0.00095211545
0.0010265098
0.0010919542
0.0011954475
0.0013795605
0.0016942393
0.0015704817
0.0022641794
0.0033082864
0.0031458442
0.0024026843
0.0017820177
0.001296951
0.00087623698
0.00060256665
0.00042607176
0.00031858582
0.0004121371
0.00053179072
0.00067338324
0.00084070326
0.0010186596
0.0011881754
0.0013446219
0.0014827632
0.001604291
0.0017321126
0.0016109573
0.0022956853
0.0031234298
0.0037219508
0.0029589491
0.0021320363
0.0013060328
0.00066715877
0.00039276833
0.00028632102
0.00033078435
0.00046830572
0.00061585647
0.00078172683
0.00096391182
0.0011520997
0.0013338791
0.0014940474
0.0015949893
0.0016057567
0.0014438461
0.0018768062
0.0042369614
0.0039568058
0.0028822671
0.0017674095
0.00080891561
0.00029833728
0.00016782717
0.00027753362
0.00041887145
0.00058361658
0.00076635774
0.00095117778
0.0011186765
0.0012081686
0.0011620877
0.00097056169
0.0010392143
0.0014117544
0.0048096321
0.0037908101
0.0030248243
0.0015725612
0.00045160239
9.393435e-05
0.00014596862
0.0002470494
0.00037183737
0.00049899449
0.00057578123
0.00060557207
0.00057141726
0.00061324053
0.00074265521
0.0056883421
0.0033985714
0.0010923986
0.00012851446
3.8431713e-05
5.3038431e-05
8.6709031e-05
0.00013173344
0.00016001542
0.00017664349
0.00023083051
0.00075180323
0.00032010517
5.5431263e-05
7.8217966e-05
0.0001027593
0.00017236703
0.0012481739
0.00043555691
0.00021646512
0.00017008002
0.00012459589
9.4154022e-05
7.6455086e-05
5.8275196e-05
6.8318374e-05
0.001342265
0.0013715358
0.0013902826
0.0012867006
0.0010974768
0.00082950716
0.00057084372
0.00035138646
0.00019177398
9.5732748e-05
8.9998919e-05
0.00077402571
0.0032307092
0.0051850922
0.0040969541
0.0022130301
0.0023775149
0.002349177
0.0021692609
0.0018814091
0.0015551459
0.0012199629
0.00090211102
0.00061690908
0.00038178416
0.00020863702
0.00010803175
0.00019066216
0.00089944118
0.0022690475
0.0029201
0.0048745005
0.0034460117
0.0031599025
0.0028449516
0.0025002818
0.0021690652
0.0018508532
0.0015433592
0.0012497172
0.00097288516
0.00071660001
0.00048924278
0.00030166565
0.00015952643
0.00010410175
0.0003305372
0.0010846441
0.0020501918
0.0027534855
0.006310535
0.0039080634
0.0032584138
0.0027727847
0.0023982244
0.0021088619
0.0018518381
0.0015972629
0.0013429074
0.0011002422
0.00087710844
0.00067343714
0.00048994626
0.00033032657
0.00019409436
0.00010965973
0.00013830909
0.00053847648
0.0013343088
0.0020528743
0.0024382768
0.010971589
0.0044246032
0.0031892812
0.0024475331
0.0020140198
0.0017796845
0.0016432144
0.0015096657
0.0013348109
0.0011275178
0.00091817009
0.00072923256
0.00056646409
0.00042739927
0.00030612179
0.00020380938
0.00012614971
0.00012942035
0.00031860519
0.00092999431
0.0016383457
0.0020361345
0.0019562263
0.0050951849
0.0030171466
0.0019824809
0.0014862784
0.0013312705
0.0013432672
0.0013650425
0.001306664
0.0011631151
0.00097194046
0.00077598075
0.0006027998
0.00046245016
0.00035273687
0.00025982269
0.00019976103
0.00017819544
0.00017796975
0.0002968567
0.00073312604
0.0013677581
0.0018346104
0.0014236344
0.0021194796
0.0062605749
0.003010764
0.001587187
0.00092887463
0.00078036838
0.00092081097
0.0011237891
0.0012330816
0.0011997201
0.0010574304
0.00086834793
0.00068018458
0.00051747602
0.00038983704
0.00029428576
0.00021729594
0.00021136995
0.00026971478
0.00030738782
0.00039691511
0.00068693078
0.0011956646
0.0016598284
0.0015235782
0.0011565941
0.0033082819
0.0011778082
0.00042879484
0.00031457889
0.00044086168
0.00074932187
0.0010261663
0.001155175
0.0011143605
0.00095858031
0.00076896982
0.00059485639
0.00045076794
0.00033914275
0.00025157639
0.00018659367
0.00023418843
0.0003678878
0.00045930337
0.00053566796
0.00072110018
0.0010988694
0.0014905837
0.0015381741
0.00094769727
0.00064194489
0.005706969
0.001099356
0.00026192029
0.00020202903
0.00025139307
0.00038632017
0.00061973247
0.00083055972
0.00093065097
0.00090578774
0.00078415514
0.00062059935
0.0004720619
0.00035900556
0.00027638591
0.00020513199
0.00016239078
0.0002501691
0.00043530616
0.00055757447
0.00062194614
0.00075284155
0.001025423
0.0013321583
0.0014454851
0.00096966205
0.00034027457
0.00016936273
0.0001350735
0.00019470575
0.0002729339
0.00031983589
0.00037224957
0.00043731162
0.00050020408
0.00053026365
0.00051672842
0.00046041356
0.00038028134
0.00029329735
0.00022289631
0.00017910872
0.00014157497
0.00013433354
0.00025028101
0.00045296117
0.00056161472
0.00061934415
0.0007295764
0.00093608642
0.001173643
0.0012732298
0.00090098479
0.00031202011
0.00012060612
0.00018425399
0.00036688286
0.00047027476
0.00046928757
0.00041241253
0.00035257851
0.0003054507
0.00027097267
0.00023775937
0.00020004626
0.00016048179
0.00012202453
9.5638804e-05
8.4727188e-05
8.0665699e-05
0.000111055
0.00024287272
0.00041211777
0.00049037138
0.00054704987
0.00065120478
0.00082160108
0.0010060057
0.001064523
0.00076767068
0.00027239424
0.00044145939
8.8884343e-05
0.00035568216
0.00061901277
0.00072683907
0.00068012443
0.0005639141
0.00045087561
0.00036937877
0.00030944474
0.00024741119
0.00017074824
9.9621254e-05
6.1208615e-05
3.8197248e-05
3.4146419e-05
4.9725261e-05
0.00010069843
0.00022258835
0.00033445173
0.00038802261
0.00044477617
0.0005464845
0.00069343693
0.000831234
0.00084089035
0.00057752953
0.00019666637
0.00016609147
0.00016449694
0.00058056496
0.00093056153
0.0010209871
0.00092333594
0.00076432211
0.00062555534
0.00053017791
0.0004586703
0.00037346381
0.0002487754
0.00012128436
3.9829607e-05
8.1589778e-05
3.4680859e-05
4.7531133e-05
9.998822e-05
0.00018788428
0.0002522043
0.0002910372
0.00034694883
0.00044220513
0.00056273186
0.00065089685
0.00061396041
0.00039132858
0.00011653631
0.00011588598
0.00013473988
0.00087259633
0.0012986433
0.0013434967
0.0011857488
0.00098276403
0.0008176637
0.00070444527
0.00061380258
0.000499917
0.00033812425
0.00016745378
5.6383859e-05
2.8318745e-05
3.2184968e-05
5.5080638e-05
8.9377843e-05
0.00013739169
0.00017540649
0.00021118025
0.00026678967
0.00034844691
0.00043479949
0.00047599798
0.000413964
0.00024343969
9.1873363e-05
8.9794968e-05
0.00018913816
0.0011611949
0.0016744329
0.0016835
0.0014707035
0.0012259647
0.0010376922
0.00091005957
0.00080286332
0.00066331655
0.00047327058
0.00024697522
0.00010335621
6.746099e-05
7.2599349e-05
8.2751932e-05
0.00010214114
0.00012487771
0.00014210272
0.00016305127
0.00020262078
0.00026141537
0.00031375857
0.00032072096
0.00025319755
0.00013468188
5.2123531e-05
8.5327381e-05
0.00030548105
0.0013655198
0.0020466334
0.0020434058
0.001772918
0.0014714998
0.0012558116
0.0011217974
0.0010140663
0.00086465626
0.00063786172
0.00033417545
0.00013901152
0.00012009564
0.00016188077
0.00019310114
0.00022385538
0.00024797151
0.00024273318
0.00021239987
0.00018955113
0.00019542822
0.0002051648
0.00018735131
0.00012905378
6.2322855e-05
3.7188109e-05
0.00059757812
0.0014731607
0.0023770692
0.0024164541
0.0020839236
0.0016917338
0.0014327716
0.0012991252
0.0012096195
0.0010545023
0.00076768337
0.00039253169
0.00017269861
0.0001802691
0.00027201969
0.00035115522
0.00042033469
0.00045065271
0.00041742043
0.00032057287
0.00020486753
0.00014005575
0.00011868261
0.00010615698
9.9929205e-05
0.00015633956
5.7073939e-05
0.0014346684
0.0025816
0.0027995802
0.0024054324
0.0018770856
0.0015366478
0.0013881781
0.0013124286
0.001134855
0.00079390548
0.00040193968
0.00019845122
0.00022807729
0.00034580429
0.00045461381
0.00054933651
0.00058882903
0.00053057417
0.00038286908
0.00020967597
0.00012479808
0.00010689207
0.00011386013
0.00027787486
0.00090372178
0.00097070542
0.00083325924
0.0025828781
0.0031819596
0.002756063
0.0020693041
0.0015762533
0.0013531964
0.0012445217
0.0010303159
0.00068815212
0.00036900397
0.0002239605
0.00027485076
0.00040011883
0.00052142475
0.00062321652
0.00065862916
0.000590249
0.00043018897
0.00026343468
0.00019404447
0.00024098048
0.00048395259
0.001045099
0.0013795842
0.0058013053
0.0029063061
0.0023212923
0.0034969794
0.003173977
0.0023599406
0.0016353753
0.0012356582
0.001007756
0.00076102484
0.00049003022
0.00031767085
0.0002683263
0.00034742448
0.00047540056
0.00060481251
0.00071388698
0.00075739314
0.0007118217
0.00060518818
0.00052563251
0.00057117381
0.00080957498
0.0013072819
0.0023014451
0.0030036353
0.0016342199
0.0036962658
0.0036600339
0.0028459109
0.0018587256
0.0011795685
0.00072553241
0.00045016719
0.00031827194
0.00028420929
0.00034045722
0.00045882827
0.00059700788
0.00074120905
0.00087238879
0.00095616724
0.00098414078
0.0010008865
0.001088091
0.0013072034
0.0016919336
0.0023047987
0.0023448124
0.0036253483
0.0042218422
0.0035970172
0.0023974702
0.0014046085
0.00062755694
0.0002965111
0.00022887774
0.00028472666
0.00042433019
0.00058709577
0.00075483181
0.00092995464
0.0011053767
0.0012671374
0.0014139714
0.0015690579
0.001770682
0.002023017
0.0023402845
0.0022744926
0.0038039961
0.004699468
0.0047377667
0.0033894136
0.002108751
0.00093830948
0.00032112369
0.00020641114
0.00026842674
0.00045742344
0.00066825777
0.00088472017
0.0011067327
0.0013309376
0.0015519953
0.0017680308
0.0019751808
0.0021401442
0.002252159
0.0020939694
0.0031795936
0.0066406556
0.0051778339
0.0034238436
0.0018615075
0.00072221569
0.00025390175
0.00020757135
0.0003766211
0.00060908846
0.00086300101
0.0011260731
0.0013770322
0.0015934283
0.0017146764
0.001684739
0.0014901745
0.0016394626
0.0024883764
0.0073738301
0.0050306213
0.0038470168
0.0018864958
0.00060275201
0.00015325642
0.00019505669
0.00036549995
0.00056730326
0.00077876853
0.00092339367
0.00099395853
0.00095394756
0.0010482201
0.001394232
0.0075204557
0.0044261817
0.0015126056
0.00028022011
5.1794723e-05
8.0763424e-05
0.00013754203
0.00022730406
0.00027870611
0.00031101687
0.00040745404
0.0012241472
0.00068018516
6.5079419e-05
8.1003428e-05
0.0001135434
0.00019144854
0.0018774107
0.00064224391
0.00032197841
0.00025031692
0.00017047571
0.00011717692
8.7852721e-05
6.3417357e-05
7.2866599e-05
0.0021682012
0.0019599092
0.0019456435
0.0017659963
0.0014913681
0.0011348019
0.00078303957
0.00047499275
0.00024815978
0.00010488934
0.00020999949
0.0013846258
0.0043483941
0.0072807961
0.0062168383
0.0030157167
0.0030453979
0.0029503363
0.0027201901
0.0023875037
0.0020071552
0.0016015748
0.0011995853
0.00082235809
0.00049856224
0.00024746766
0.00014605391
0.00037131518
0.0013704721
0.0031134029
0.0042786499
0.0073296771
0.0043405019
0.0037775733
0.0032969581
0.0028863374
0.0025359143
0.002221805
0.0019130276
0.0015960033
0.0012707125
0.00094690209
0.00064317024
0.00037797234
0.00018551169
0.0001267892
0.00051935337
0.0015101206
0.0027619984
0.0038093194
0.0090432456
0.0048025081
0.0037630836
0.0030127867
0.0025019209
0.0021901233
0.0019883983
0.0018052265
0.0015964077
0.001363513
0.0011204311
0.00087634857
0.000638406
0.00041834159
0.00022847223
0.00011563932
0.00017625169
0.00071260118
0.0017249373
0.0026921757
0.003444128
0.015649129
0.0054697274
0.0036597208
0.0025287553
0.001877185
0.0015896558
0.0015167122
0.0015039035
0.001439012
0.0012963701
0.0011067995
0.00090793737
0.00071877162
0.00054215754
0.00038008268
0.0002317299
0.00011796628
0.00011877229
0.00033286218
0.0010841129
0.0020417454
0.0026813248
0.002898606
0.0064787491
0.0036162501
0.0020835157
0.0012486788
0.00095169873
0.0009918612
0.0011462728
0.0012464978
0.0012226969
0.0010934477
0.00091307175
0.00072911682
0.00056624912
0.000428298
0.00030893566
0.00020833266
0.00012315989
0.00011323231
0.00020897775
0.00071463289
0.0015830703
0.0023055364
0.0020053243
0.0035069244
0.0085627825
0.0037751657
0.0017979808
0.00077558023
0.00042175499
0.00046463435
0.00071145559
0.00097343996
0.0011113339
0.0010900157
0.00095799393
0.00078138643
0.00060685864
0.00045826293
0.00034069574
0.00024470179
0.00017770287
0.00015154461
0.00015283813
0.0002378084
0.00058584283
0.0012910863
0.0020101465
0.0020278504
0.0017562723
0.0043277409
0.0015531449
0.00046903174
0.00022472455
0.00021246437
0.00032092457
0.00057858432
0.00083816489
0.00097459554
0.0009564663
0.0008304253
0.0006699973
0.00051692933
0.00038798089
0.00028441333
0.00020070552
0.00017348902
0.00021829842
0.00027507161
0.00036759432
0.00061974753
0.0011471183
0.0017766672
0.0019870261
0.001386659
0.0010689588
0.007767947
0.0015677978
0.00040235123
0.00020728783
0.00020511252
0.00021573247
0.00028214694
0.00042843088
0.00059915749
0.00070769051
0.00072096549
0.00064785061
0.00052886499
0.00041316131
0.00031798465
0.00023553896
0.00016830472
0.00018470376
0.00030349832
0.00042516628
0.00052691456
0.00071325617
0.0011020416
0.0015991204
0.001863088
0.0013877393
0.00057657258
0.00046505385
0.00024721209
0.00026316385
0.00034011313
0.00036234112
0.00033793721
0.00028523967
0.00029867181
0.0003341773
0.0003658449
0.00037255416
0.00035326058
0.00031553541
0.0002616798
0.00021435553
0.00016838352
0.00013389442
0.00019808394
0.00037952787
0.00052201085
0.0006160127
0.00077098213
0.0010674888
0.0014463824
0.0016644754
0.0012707185
0.0005025822
0.00014469
0.00023050391
0.00046977603
0.0006165222
0.00060563539
0.00049930688
0.00038332912
0.00030132216
0.00025289647
0.00021615837
0.00017775435
0.00014000871
0.00011287764
0.00010016254
9.8000159e-05
9.3370616e-05
0.00010277614
0.00021570443
0.00040906173
0.00051982429
0.00060569125
0.00075051976
0.00099481652
0.0012844194
0.0014218979
0.0010861908
0.00043592671
0.00061882733
0.00012399096
0.0004885354
0.00083040312
0.00096573139
0.0008875898
0.00071468456
0.00054849056
0.00043098886
0.00035413735
0.00028666007
0.000201828
0.00011277857
5.6567989e-05
3.2339812e-05
3.4293496e-05
4.6366311e-05
9.5633794e-05
0.00023054783
0.00036870473
0.00044315379
0.00052623122
0.00066944665
0.00088227353
0.0010992938
0.0011491842
0.00082697315
0.00031173045
0.00022624708
0.00024106101
0.00080913342