/*--------------------------------*- C++ -*----------------------------------*\
| =========                 |                                                 |
| \\      /  F ield         | OpenFOAM: The Open Source CFD Toolbox           |
|  \\    /   O peration     | Version:  2406                                  |
|   \\  /    A nd           | Website:  www.openfoam.com                      |
|    \\/     M anipulation  |                                                 |
\*---------------------------------------------------------------------------*/
FoamFile
{
    version     2.0;
    format      ascii;
    arch        "LSB;label=32;scalar=64";
    class       volScalarField;
    location    "400";
    object      k;
}
// * * * * * * * * * * * * * * * * * * * * * * * * * * * * * * * * * * * * * //

dimensions      [0 2 -2 0 0 0 0];

internalField   nonuniform List<scalar> 
150387
(
0.00020587689
9.4914686e-05
8.1804828e-05
7.3130586e-05
6.6481715e-05
6.7064725e-05
7.1373475e-05
4.60206e-05
0.00021907601
0.00020763659
0.00022734299
0.00023423502
0.00022306194
0.00020005361
0.00015962192
0.00011431459
8.1092944e-05
6.9625894e-05
7.243427e-05
0.00017839463
0.0003614329
0.00028871188
0.00045714394
0.00052876553
0.00052481728
0.00047477751
0.00040614067
0.00033797658
0.00027284951
0.00021032056
0.00014673043
9.4380632e-05
8.6785177e-05
0.00022510817
0.00032004339
0.00041017327
0.00024332757
0.00024904885
0.00052734736
0.00066058865
0.00069354501
0.00067353398
0.0006233781
0.00055376807
0.00047431365
0.0003942425
0.00031864727
0.00025088376
0.00019152143
0.00012666454
0.00010813517
0.00028387556
0.00034009714
0.00044502344
0.00050185432
0.00026625653
0.00027971063
0.00061794706
0.00081906883
0.00090784251
0.00088569311
0.000787591
0.00065937225
0.00053736345
0.00043653137
0.00035342955
0.00029148284
0.00024143386
0.00019205909
0.00013333263
0.00013449218
0.00033796833
0.00036691687
0.00046611239
0.00055181902
0.00047929936
0.00032852754
0.00070794792
0.00092128268
0.00099956384
0.0010121933
0.00095915632
0.00084757948
0.00070573508
0.00056194009
0.00043568358
0.00033724031
0.00026626172
0.00021357228
0.00016923851
0.00012196167
0.00016338918
0.000361353
0.00039000766
0.0004914587
0.00057375181
0.00059757184
0.00048869502
0.00023550137
0.00065136872
0.00094622164
0.0010461968
0.001061204
0.0010115597
0.00091586729
0.0008002897
0.00067719912
0.00055273349
0.00043684101
0.00033617438
0.00025533866
0.00019366864
0.00014875903
0.0001094205
0.00019703217
0.00035305143
0.00040111953
0.00050553581
0.00057121954
0.00063912556
0.00056670835
0.00035912396
0.00012431975
0.0003634425
0.00086240232
0.00091981154
0.0009616139
0.0009810692
0.00094112683
0.00085150661
0.0007372111
0.00061701624
0.00050477898
0.00040423577
0.00031745675
0.0002439516
0.00018286541
0.00013581202
0.0001017533
0.00022368798
0.0003171655
0.00039862832
0.00048746857
0.00055314133
0.0006135288
0.0005662313
0.00047621704
0.0002102564
0.00085667618
0.00084954168
0.00084628869
0.00084340337
0.00081573696
0.0007671847
0.00070615535
0.00062340646
0.00052648518
0.00043036987
0.00034483684
0.00027295798
0.00021344977
0.00016322239
0.00012270006
9.9390724e-05
0.00022426248
0.00028403199
0.0003758098
0.00044725221
0.00050940282
0.00054205219
0.00051165935
0.00051518259
0.00027666412
0.00012203078
0.00074174877
0.00074856769
0.00077797252
0.00078452212
0.00075516928
0.00067884953
0.00058416535
0.00049207727
0.00041058078
0.00033252013
0.00026689522
0.00021287275
0.00016885296
0.00013285165
0.00010519954
0.00010173727
0.00019487031
0.00025267882
0.00033456185
0.00039148418
0.00043822717
0.00044730234
0.0004441194
0.00048510867
0.00028926966
0.00010802155
0.00022235144
0.00061081359
0.00075620861
0.00077512749
0.00074697218
0.00066651274
0.00057961551
0.00050067681
0.00041441897
0.00032384389
0.00024619926
0.00019007139
0.00015047861
0.00012149201
0.00010101881
8.4433717e-05
0.00010722921
0.00015960233
0.00022129361
0.00028434902
0.00032967041
0.00035150084
0.00035368619
0.00037960325
0.00042175916
0.00027311635
0.00010951125
9.0635275e-05
0.00012571383
0.00019894045
0.00027346699
0.00032448403
0.00034951443
0.00034316436
0.00031336468
0.00028200649
0.00024906742
0.00020217718
0.00015298048
0.00011452483
9.0074681e-05
7.815845e-05
7.2257839e-05
0.00010834322
0.00013531554
0.00018711676
0.000232129
0.0002605587
0.00026684401
0.00027294151
0.00032029959
0.0003478346
0.00024401635
0.00010164345
0.0001342851
6.932068e-05
8.5070962e-05
0.00014077385
0.00017209506
0.00016767187
0.00014942472
0.00013584607
0.00012926359
0.00012321832
0.00011768358
0.00011135139
0.00010211658
8.7621843e-05
7.4688651e-05
6.7630029e-05
6.377009e-05
9.6215147e-05
0.00011667794
0.00015180623
0.00018158873
0.00019597944
0.00020006784
0.00022074009
0.00026312583
0.0002797427
0.00021331862
8.561417e-05
8.0681297e-05
7.2565113e-05
0.00011999394
0.00022200808
0.00026961181
0.00026071127
0.00022602078
0.00020411464
0.00019102553
0.00016974447
0.00014039289
0.00010935904
8.177926e-05
6.2554379e-05
6.121562e-05
4.4680453e-05
6.6206842e-05
8.2524712e-05
9.9543928e-05
0.00011929572
0.00013596331
0.00014292168
0.00015261463
0.00018235965
0.00021226092
0.00022102959
0.00017259718
6.6393834e-05
6.6480595e-05
7.8225086e-05
0.00016755598
0.00029742177
0.00035421583
0.00032058483
0.00029625458
0.00028699667
0.0002728534
0.00023857477
0.0001912967
0.00013984797
9.6524557e-05
7.8042965e-05
4.9096756e-05
5.6829801e-05
6.7487614e-05
7.1194921e-05
7.8416983e-05
8.8567671e-05
9.8332422e-05
0.00010637533
0.00012143193
0.00015132577
0.00017358677
0.00017151675
0.00012593354
5.5251204e-05
6.3586462e-05
8.6303241e-05
0.00020337503
0.00037383029
0.00044324621
0.00040235378
0.0003907158
0.00039138309
0.00036738323
0.00031796049
0.00025258812
0.00018175279
0.00012505402
0.00010212371
7.2376902e-05
7.160065e-05
8.6148042e-05
0.00010044064
0.00010914149
0.00010696888
9.8900098e-05
9.3765369e-05
9.7148652e-05
0.00011243578
0.00012893747
0.00012375044
8.3083555e-05
5.0223536e-05
5.4323877e-05
0.0001016062
0.00022120158
0.00045086831
0.00053274328
0.0005047675
0.00051695117
0.00051518687
0.00047595071
0.00041133682
0.00032540312
0.00023314661
0.00017038328
0.00014030865
8.8875109e-05
8.4986931e-05
0.00010221166
0.0001191933
0.00014963515
0.00019790678
0.00024575177
0.00026203654
0.00023488417
0.00017698256
0.00012764363
9.2716023e-05
6.4519934e-05
5.0553481e-05
3.8646744e-05
0.00018241552
0.0002271316
0.00051740425
0.00061454586
0.00062669221
0.000667929
0.00065379934
0.00059911321
0.00051909556
0.00040946551
0.00030138101
0.00023947527
0.00018419715
9.8493972e-05
0.00010526733
0.00013710413
0.0001724819
0.0002039625
0.00024156739
0.00029981083
0.00036300694
0.0004109881
0.00042398408
0.00040605152
0.00032416373
0.00021184095
0.00011768208
0.00021096252
0.00054725704
0.00068039301
0.00076637285
0.00083197231
0.00079788928
0.00073386388
0.00063150393
0.00050070511
0.00039692511
0.00032563932
0.00021790456
0.00010242226
0.00012641544
0.00017444873
0.00022889253
0.00028312024
0.00032957049
0.00036445279
0.00039907301
0.00042846303
0.00042684714
0.0003995232
0.00037195359
0.00035498866
0.00030133558
0.00018675153
0.00051586152
0.00071902623
0.00089869058
0.0009814467
0.00093778049
0.00086755482
0.00074136737
0.00058810784
0.00050413347
0.00040004854
0.00024548704
0.00010419927
0.00014243364
0.00020373495
0.00027362858
0.00034699929
0.00041464415
0.00047145535
0.00050018023
0.0005010781
0.0004817283
0.00044831473
0.00040208488
0.00036153983
0.00040905161
0.00038869757
0.00071426462
0.00097689941
0.0010861281
0.0010598629
0.00098647741
0.00082529295
0.00068845986
0.0006100325
0.00046149355
0.00026296298
0.00010512218
0.00014814484
0.00021699675
0.00030117804
0.00038998874
0.00047498799
0.00054741783
0.00059775934
0.00061508153
0.00059775685
0.00055770527
0.00050205635
0.00036592706
0.00017726157
0.00062826577
0.00094812221
0.0011140045
0.0011436515
0.0010685691
0.00088049729
0.0007784895
0.0006840505
0.00054580728
0.00024769756
0.00011066041
0.0001558413
0.00021736514
0.000305592
0.0004127847
0.00051880062
0.00060517416
0.00065934108
0.00067930726
0.0006631888
0.00060106496
0.00044281147
0.000203185
0.00040715934
0.00078503794
0.0010547803
0.0011624274
0.001089343
0.00091731489
0.00084236272
0.00073772984
0.00062018759
0.00020725955
0.00013487193
0.00018847697
0.00023281332
0.00030172824
0.00040480078
0.00052052409
0.00063208731
0.00070885072
0.00071894134
0.000631315
0.00042457504
0.00016163287
0.00051040781
0.00088712268
0.0010950171
0.0010384569
0.00092443238
0.00085659086
0.00077555755
0.00062688185
0.00017222146
0.00015947592
0.00021914
0.0002760559
0.00033909796
0.00040656076
0.00048199266
0.00055785584
0.00060357398
0.00057202639
0.00044970982
0.00022862553
0.00047853093
0.00088403811
0.00095971947
0.00090199991
0.00083982618
0.00077315813
0.00055420234
0.00013836273
0.00016440715
0.00022469009
0.00029230512
0.00036622843
0.00043872705
0.00049083165
0.00049684552
0.00042235596
0.00028772337
0.00017077162
0.00035446439
0.00076089276
0.0008783522
0.00080006362
0.00074609529
0.00037628249
9.4486276e-05
0.00011861611
0.00017117411
0.00021068056
0.00023790771
0.00026022375
0.00026008026
0.00022180344
0.00014027693
0.00014327906
0.00061538375
0.00068255949
0.00066503406
0.00016441489
6.1843689e-05
5.4264267e-05
6.4050454e-05
8.2566478e-05
9.3781381e-05
9.4890541e-05
8.6349184e-05
0.00013122828
0.00010984297
0.00013742722
4.8736885e-05
6.1315024e-05
8.1255095e-05
0.00012937362
0.00022443184
0.00019386879
0.00016780134
0.00014295278
0.00011366184
8.8053149e-05
6.9579199e-05
6.7308755e-05
6.4376995e-05
0.00035621132
0.00060834157
0.00068608981
0.0006995681
0.00066259284
0.00056318753
0.00044044421
0.00031559074
0.00020551822
0.00013278331
7.9325046e-05
0.00021028792
0.00045841205
0.00056006579
0.00046187319
0.00084239247
0.0011076316
0.0012266383
0.0012192773
0.0011227458
0.00098661722
0.00083313642
0.00067562685
0.00052018504
0.00037470353
0.00025650622
0.0001493646
0.00013278433
0.00034897441
0.0005644365
0.00064031004
0.00062634308
0.0011662458
0.0013959928
0.0014765508
0.0014394697
0.0013369983
0.001201944
0.0010502071
0.00089668278
0.00074835996
0.00060611531
0.0004707381
0.0003433749
0.00022080442
0.00015275531
0.00025290649
0.00049860698
0.00069804867
0.00056891425
0.00076739201
0.0013395273
0.0015651806
0.0016448326
0.0016062795
0.0014912237
0.0013355179
0.0011629581
0.00099298121
0.00083973889
0.00070536346
0.00058610556
0.00047842346
0.0003668548
0.00025962471
0.0001958523
0.00024149784
0.00045725707
0.00072116932
0.00078376465
0.00054026493
0.00090812555
0.0013881753
0.0015524568
0.0015988102
0.0015721863
0.0015090994
0.0014038551
0.0012570593
0.0010834897
0.00090727908
0.00074993198
0.00062033185
0.00051573232
0.00043064879
0.00033871071
0.00027375285
0.00026168381
0.00029576822
0.00047246129
0.00073402929
0.00089441507
0.00078054009
0.0004374898
0.001232397
0.0013768869
0.0014050796
0.0014052374
0.0014069882
0.00138126
0.001299871
0.0011723651
0.001006683
0.00083369966
0.00067597776
0.00054565106
0.00044469421
0.0003688215
0.0002865531
0.00028419586
0.00034693634
0.00040398387
0.00054760251
0.00075457871
0.00095360193
0.00092556254
0.00062307646
0.00034422358
0.001072459
0.0012165371
0.0011061732
0.0010637359
0.0011068254
0.0011793821
0.0012164197
0.0011785723
0.0010687163
0.00091751377
0.00075656626
0.00060847054
0.00048404079
0.00038650835
0.00030892967
0.00023291464
0.00028984884
0.00041771938
0.00051828312
0.00064227051
0.0007891358
0.00096559356
0.00099043237
0.00081842101
0.00038684757
0.00091954332
0.00067549323
0.0006132715
0.00071156891
0.00088662761
0.0010347572
0.0010909432
0.0010467211
0.00093261255
0.0007876252
0.00064277478
0.00051519515
0.00040955673
0.00032508692
0.00024878831
0.00018800352
0.00028814014
0.00045835366
0.00059474542
0.00070194871
0.00080571445
0.00093915598
0.0009910753
0.00091659229
0.00047292671
0.00020409164
0.00059842115
0.00039024273
0.00030033787
0.00037403237
0.00052896038
0.00072277681
0.00085511596
0.00090396036
0.00085709432
0.00074444587
0.00060475653
0.00047545555
0.00037362777
0.00029812362
0.00024070172
0.00018283699
0.00015340032
0.00027052346
0.00046195544
0.00060675577
0.00069763741
0.00077750363
0.00087931651
0.0009468089
0.00091770495
0.00053774886
0.00020305324
8.9354344e-05
0.00012860461
0.00023637312
0.00036900787
0.00048610027
0.00055538656
0.00058244653
0.00057769021
0.00054132956
0.0004708424
0.00037851117
0.00028568906
0.00021212157
0.00016565284
0.00014004512
0.00011602099
0.00012543827
0.00024263604
0.00043139857
0.00056000545
0.00063581688
0.00070301931
0.00079295256
0.00086929263
0.00084877258
0.00054629322
0.00021008614
6.4186441e-05
0.00019478287
0.00036039349
0.00044433358
0.00044576404
0.00040395974
0.00034796271
0.00029373991
0.00024851275
0.0002115013
0.00017598006
0.0001380534
0.00010294259
7.9631081e-05
7.0418491e-05
7.0589937e-05
0.00010397586
0.00021765535
0.00037679961
0.00047826167
0.00053962889
0.00060335381
0.00069354585
0.00077073867
0.00074673884
0.00051042651
0.00019706775
0.00012690631
7.895155e-05
0.00031049635
0.00052116722
0.00061202548
0.00058463703
0.00049856705
0.00040665094
0.00032786947
0.00025667201
0.00018760884
0.00012401906
8.0511965e-05
6.3614125e-05
5.1133768e-05
4.2481387e-05
5.5145637e-05
9.2070434e-05
0.0001936816
0.00030994711
0.00038390646
0.00043658862
0.00050460935
0.00059629117
0.00066388926
0.0006290897
0.00042647179
0.0001642838
0.00010672489
0.00013934775
0.00043700242
0.00068568842
0.00077543413
0.00073161636
0.00064004269
0.00055472648
0.0004820768
0.00040202702
0.00029818383
0.00017916592
8.9493699e-05
4.3472217e-05
3.5489578e-05
3.7385244e-05
5.426276e-05
8.8961728e-05
0.00016456651
0.00024123773
0.00029632319
0.0003491708
0.00042254078
0.00050704381
0.00055292997
0.00049976231
0.00032318655
0.00011047884
9.3162961e-05
0.00011733584
0.00057832808
0.00086879354
0.0009439715
0.00088381567
0.00078357714
0.00069797186
0.0006231847
0.0005318097
0.00040166328
0.00024398635
0.00011927084
5.9750398e-05
3.2598868e-05
4.2827198e-05
5.7292027e-05
7.9052501e-05
0.00012038998
0.00016873323
0.00022020129
0.00028314852
0.00035921483
0.00042581064
0.00044338053
0.00037565917
0.00022923103
9.5882707e-05
8.331748e-05
0.00015115437
0.00068426473
0.0010386974
0.0011166453
0.0010566727
0.00095976594
0.00087375438
0.00079139835
0.00068330124
0.00052652925
0.00034222547
0.00018444285
9.5978305e-05
6.2514664e-05
6.7943587e-05
8.02606e-05
9.9816158e-05
0.00012565133
0.0001496305
0.00018003905
0.00022918279
0.00029151393
0.00034105935
0.00034015659
0.0002680301
0.00014982175
6.1006981e-05
7.5415309e-05
0.00017422247
0.00072432241
0.0011905871
0.0012870877
0.0012454066
0.0011567485
0.0010678493
0.0009759456
0.00085323393
0.00067933869
0.00047962857
0.00027686022
0.00012865082
9.5071169e-05
0.00013021411
0.00016179832
0.00020230985
0.00025699998
0.00030339252
0.00031487576
0.00030391654
0.00028840518
0.00026858954
0.00024138594
0.00018009318
9.578714e-05
4.70343e-05
0.00020185391
0.00071030642
0.0012979747
0.0014381265
0.0014380831
0.0013559055
0.0012573631
0.001156113
0.0010251914
0.00084809498
0.00063534893
0.00036835519
0.00016046779
0.00014362498
0.0002289299
0.00030416671
0.00037617022
0.00044236257
0.00048464674
0.00047677501
0.00040919206
0.0003103329
0.00022272198
0.0001602714
0.00010744592
7.4237408e-05
4.7642481e-05
0.00062287301
0.0013039307
0.001551166
0.001617672
0.0015317073
0.0014169902
0.001298086
0.0011699941
0.00099758187
0.00075610483
0.00043418101
0.00019243168
0.00019692158
0.00031793833
0.00042536381
0.00052506133
0.00060049442
0.00062535205
0.0005765786
0.00046916491
0.0003212407
0.00022355455
0.00017735901
0.00017638179
0.00029228041
0.00030518209
0.00034262258
0.0011648005
0.0015904563
0.0017550482
0.0016641395
0.0015286665
0.0013819164
0.0012527711
0.0010758265
0.00079870143
0.00046517079
0.00022952224
0.00025290093
0.0003828066
0.00050517502
0.00062311108
0.00070925456
0.00073545197
0.00068216592
0.00056642898
0.00044423255
0.00037705055
0.00039250078
0.00047897118
0.00042121218
0.00062913598
0.00035945
0.00086655162
0.0014955347
0.0018040937
0.001747839
0.0015911675
0.0013934934
0.0012505912
0.0010397466
0.00074960403
0.00046853597
0.0002755273
0.00032252517
0.00044198662
0.00056584796
0.00069470299
0.0007965325
0.00084501975
0.0008293489
0.00076466665
0.00069727722
0.00066415818
0.00065307391
0.0006285113
0.00057952825
0.00042154737
0.0012282265
0.0017071563
0.0017796095
0.0016205624
0.0013641531
0.0011667454
0.00089566036
0.00062771277
0.00044536856
0.00033570034
0.00041525608
0.0005206534
0.00063877757
0.00077044559
0.00088631221
0.00095966603
0.0009849338
0.00097614934
0.00095037106
0.0009006552
0.00080539394
0.00069079665
0.00065070236
0.0014290462
0.0017125673
0.0016251553
0.0013521668
0.0010528678
0.00071611657
0.00047144619
0.0003918394
0.00039692035
0.00050917308
0.00061560597
0.0007325381
0.00086025121
0.00098281441
0.0010801536
0.001139057
0.0011386301
0.0010572756
0.00088762242
0.00070784108
0.00051885598
0.00082969174
0.0014862169
0.0015597433
0.0013898778
0.00099537649
0.00059329538
0.00035065391
0.00030651198
0.00041590882
0.00055065582
0.00067445266
0.0007994283
0.00091960031
0.0010213992
0.0010873766
0.0010988348
0.0010252371
0.00084337457
0.00067357026
0.00047657703
0.00093560528
0.0013147948
0.0014309983
0.001046465
0.00060911596
0.0002727699
0.00020278642
0.00034958356
0.0004834544
0.0006203517
0.00075331637
0.00086880742
0.0009517776
0.00095864497
0.00085328367
0.00062711631
0.00048898577
0.00038016119
0.00089385528
0.0012790509
0.0011526356
0.00076711084
0.00032256816
0.00010521343
0.00019420639
0.0002967808
0.00040669676
0.00049926235
0.0005369709
0.00052765602
0.00046095607
0.00041923554
0.00032768015
0.0011793331
0.00085598399
0.00055934711
8.344902e-05
5.5456908e-05
8.1493556e-05
0.00012782306
0.00017392702
0.00019478058
0.00019841561
0.00017831019
0.00019738334
0.00010504841
5.7046012e-05
7.442303e-05
8.8170523e-05
0.00010360295
0.00028710846
0.00024356086
0.00021153724
0.00018268626
0.00014442408
0.00011153508
8.7921333e-05
7.3098907e-05
6.1325912e-05
0.00052456123
0.00087793136
0.00098262361
0.00098364683
0.00090903476
0.00075378141
0.00057313963
0.00039321159
0.00024063055
0.00014534241
8.7393795e-05
0.00034008918
0.00063195474
0.00076345332
0.00066683292
0.0011659557
0.0015013763
0.0016302364
0.0016148362
0.0014918123
0.0013138676
0.0011052314
0.00088563441
0.00066453459
0.00045661024
0.00029103874
0.00015356885
0.00017495198
0.00051734211
0.00077994454
0.00088106349
0.00088520341
0.0015575814
0.0018300343
0.0019148496
0.0018663282
0.0017457415
0.0015810042
0.0013911764
0.0011911032
0.00098880429
0.00078663358
0.00058810195
0.00040862159
0.00024440998
0.00016574055
0.00032790506
0.00068542063
0.00094672673
0.00077687582
0.0010462705
0.0017326607
0.0019643999
0.002002496
0.0019369292
0.0018226162
0.0016750253
0.0015002752
0.0013109863
0.0011228623
0.00094452674
0.00077486452
0.00061101492
0.00045521643
0.00030161888
0.00018478965
0.00022836657
0.00054226485
0.00093702919
0.001052501
0.0007435639
0.0012720358
0.0017749412
0.0018998182
0.001849302
0.0017500959
0.0016699129
0.0016026619
0.0015077579
0.0013649994
0.0011883373
0.0010063316
0.00083956805
0.00069278611
0.000562388
0.00043841569
0.00031428025
0.00020901749
0.00021657484
0.00043384994
0.00086321284
0.0011580255
0.0010605094
0.000616569
0.0015881263
0.0016799052
0.0015388517
0.0013899938
0.0013409928
0.0013696695
0.001396468
0.0013609769
0.0012475246
0.0010822628
0.00090324418
0.00073890781
0.0006014512
0.00049056201
0.00038747788
0.00029965345
0.00024393939
0.00024925682
0.00042263482
0.00080300544
0.0011721615
0.0012322207
0.00086748396
0.00052353861
0.001430863
0.0015036428
0.0011701673
0.00091074586
0.00084648435
0.00094557701
0.0010995366
0.0012071306
0.0012169995
0.0011301478
0.00098261386
0.00081567195
0.00065878412
0.00052775409
0.00042396652
0.00032675127
0.00027741217
0.00029415881
0.00034052254
0.0005076582
0.00080324305
0.0011514229
0.0012974879
0.0011119133
0.00059325612
0.0011568976
0.00073535475
0.00048626175
0.00042001224
0.00049760395
0.00068871621
0.00089628932
0.0010262632
0.0010463297
0.00097241774
0.00084613191
0.00070560004
0.00057283241
0.00045927531
0.00036110283
0.00026607412
0.00026189685
0.00035499791
0.0004758164
0.00063798843
0.00085145484
0.0011266899
0.0012892618
0.0012247452
0.00069049853
0.00028930277
0.00075949932
0.00049869828
0.00029217484
0.00028311963
0.00031911996
0.00040489154
0.00052981789
0.00067105324
0.00076578725
0.00078523598
0.00073442188
0.00063846777
0.00053282298
0.0004390505
0.0003610663
0.00028306251
0.00020702073
0.00025174593
0.00042010653
0.00059394455
0.00073828931
0.00088921834
0.0010884124
0.0012375739
0.0012273851
0.0007764679
0.00029293214
0.00011768931
0.00013508386
0.00024514085
0.00035065419
0.00040880308
0.00042707967
0.00043119479
0.00043654819
0.00044249306
0.00043508072
0.0004035835
0.00035607544
0.00030209959
0.00025418284
0.00022124107
0.00018387108
0.00015223244
0.0002442163
0.00046614071
0.00064331009
0.00075837652
0.00087094115
0.0010211466
0.001150852
0.001145622
0.00077717782
0.00031012275
7.3528237e-05
0.00024154038
0.00044681534
0.00056858996
0.00057973194
0.00051874701
0.00043360669
0.00035221392
0.00028342135
0.00022774133
0.00018253024
0.00014516714
0.00011521456
9.8948637e-05
9.6962106e-05
9.5773256e-05
0.00011323901
0.00024801702
0.00047074235
0.00061214608
0.00069980203
0.00079567087
0.00092412596
0.0010346008
0.0010157631
0.00071411054
0.00029278332
0.00014189512
0.00010866384
0.00039426068
0.00066183946
0.000792307
0.00077844765
0.00068575887
0.00057790876
0.00048308131
0.00039565887
0.00029988114
0.00019269114
0.00010428032
5.8471601e-05
4.289158e-05
4.2406126e-05
5.3947718e-05
0.00010372858
0.00025528068
0.00042692845
0.00052505993
0.0005971068
0.00069113362
0.00081023866
0.0008985809
0.00085643381
0.00058656229
0.00023676791
0.00011766875
0.00019113858
0.00057876171
0.000906896
0.0010268995
0.00098096615
0.00086567922
0.00075208014
0.00066038138
0.00057006365
0.00044784048
0.00028248173
0.00012914115
4.6566889e-05
3.808051e-05
3.1588092e-05
5.0217081e-05
0.00011473157
0.00024122051
0.00035220409
0.00042128169
0.00048985523
0.00058479744
0.00069026532
0.00074693977
0.00067547164
0.00043740773
0.00014768018
9.6024313e-05
0.00015455653
0.00078637007
0.0011649695
0.0012623731
0.0011883622
0.001056053
0.00093537493
0.00083674683
0.00073015475
0.00057618871
0.00036880576
0.00016745876
6.078429e-05
3.1121565e-05
3.6818999e-05
5.9881298e-05
0.00010936525
0.00018756132
0.00026021603
0.00032447314
0.00039874806
0.00048785646
0.00056747279
0.0005875519
0.00049764348
0.00030090956
0.00012916133
7.9897843e-05
0.00019649717
0.00095507159
0.0013974512
0.0014895362
0.0014030017
0.0012634351
0.0011391464
0.0010315433
0.00090437993
0.00071958438
0.00048270963
0.0002348588
9.7075786e-05
7.1327733e-05
7.6527342e-05
8.3314829e-05
0.00010625303
0.0001433693
0.00018745147
0.00024444283
0.00031749454
0.00039351271
0.0004442933
0.0004332556
0.0003383188
0.00018647652
8.5615221e-05
6.8682864e-05
0.00022113042
0.0010376656
0.0015982605
0.0017058076
0.0016191867
0.0014686132
0.0013341197
0.0012149127
0.001071349
0.00086675448
0.00060111482
0.00030005085
0.00012963779
0.00013720581
0.00018440764
0.00020290414
0.00022064842
0.00024266752
0.0002530068
0.00025732689
0.00027542551
0.00030694123
0.00031954747
0.00028801086
0.00020322882
0.0001050749
5.7881934e-05
0.00026215322
0.0010358509
0.0017385513
0.0018940249
0.0018238445
0.0016457155
0.001484579
0.001347757
0.0011937565
0.00097439263
0.00067457709
0.00034109592
0.00016909128
0.00022637436
0.00033847779
0.0004076575
0.00044567782
0.00044524106
0.00040419819
0.00033269141
0.00026607101
0.00022594836
0.00020236585
0.0001683255
0.00012348595
0.00011094681
6.2008154e-05
0.00091640047
0.0017596895
0.0020318944
0.0020040771
0.0017776393
0.0015645673
0.0013927758
0.0012251896
0.00098565037
0.00066498088
0.00035295928
0.00021749487
0.00030944191
0.00045665452
0.00056650751
0.00063293024
0.00062754814
0.00053904515
0.00039558534
0.00026354721
0.00019552928
0.0001774804
0.00017570425
0.0002305974
0.0004079874
0.00044014568
0.00051943141
0.001609854
0.0020853674
0.0021445634
0.0018778264
0.0015839551
0.0013469557
0.0011402435
0.00087187247
0.00057495835
0.00035293916
0.00028054551
0.0003865929
0.00053784828
0.00066933506
0.0007605186
0.00076644707
0.00067073873
0.00050838824
0.0003582922
0.00029342601
0.00032698634
0.00044892371
0.00063182002
0.00056742948
0.00079214212
0.00052973381
0.0012230726
0.0019842126
0.0022191206
0.0019808184
0.0015984851
0.0012541285
0.00096573334
0.00066748687
0.00045027563
0.00035853693
0.00036379905
0.00047789325
0.0006186501
0.0007568969
0.00086783593
0.00090617923
0.00085487109
0.00074832517
0.00066582371
0.00067049835
0.00075797214
0.00084392171
0.00084050531
0.0007700831
0.00061129697
0.0016604021
0.0021590482
0.0020882204
0.0016765247
0.0012060848
0.00079682317
0.00047544521
0.0003641471
0.00037559199
0.00046356711
0.00059173218
0.00072732854
0.00086744744
0.00099307107
0.0010708693
0.0010889539
0.0010776052
0.0010885158
0.0011329183
0.0011561429
0.001076252
0.00093559427
0.00093016993
0.0018646183
0.0021153525
0.0018268616
0.0012974054
0.00075670129
0.00039082745
0.00030745809
0.00039350933
0.00054807834
0.00070312965
0.00085276351
0.0010019855
0.0011435623
0.0012626436
0.0013497864
0.0014062347
0.0014283599
0.0013781876
0.001196075
0.00097265255
0.00072901265
0.0011239749
0.0019178678
0.0019234779
0.0015393655
0.00090576428
0.0004306966
0.00028666988
0.00036262223
0.00056038898
0.00075167665
0.00093185351
0.0011006024
0.0012523197
0.001375394
0.0014556477
0.0014748262
0.0013916111
0.0011657129
0.00094932751
0.00066739413
0.001278879
0.0017062022
0.0017939687
0.0011901918
0.00061720681
0.00028875747
0.00026790832
0.00045280044
0.0006608714
0.00086438789
0.0010519158
0.0012073751
0.001313951
0.0013264134
0.0012027971
0.00090823076
0.0007180821
0.00055556419
0.0011855147
0.0016962364
0.001475268
0.00095363798
0.00042533034
0.00016095713
0.00024631269
0.00040521654
0.00057107772
0.00071701357
0.00078974497
0.00079088952
0.00069614824
0.00066029496
0.00051200871
0.0014526442
0.0010892576
0.00073143434
0.00016733382
7.6851408e-05
0.00011461613
0.00017970091
0.00025779198
0.00029112136
0.0003020174
0.00026062465
0.00028702444
0.0001792983
6.1887006e-05
7.5424925e-05
9.404409e-05
0.00011880264
0.0003767281
0.00031481719
0.00028399195
0.00024914194
0.00017749242
0.00012753933
9.409847e-05
7.6858676e-05
6.3304069e-05
0.00072250379
0.0011681466
0.0012950676
0.0012791209
0.0011711734
0.00097165763
0.00073591876
0.00049409244
0.00028803426
0.00015162334
0.00012955732
0.00053416056
0.00083784183
0.00095937062
0.00087825186
0.0015055156
0.0018856511
0.0020265099
0.0020044266
0.0018616643
0.0016510642
0.0013967168
0.0011215057
0.00083580566
0.00056190842
0.00032615675
0.00016844885
0.00027051537
0.00076490841
0.0010435612
0.0011349541
0.0011568024
0.0019501127
0.0022392442
0.0022984484
0.0022298161
0.0020954358
0.0019215488
0.001716608
0.0014887757
0.001245362
0.00099046815
0.00073268691
0.00048464336
0.00026858615
0.00020156642
0.00048468477
0.00095357292
0.001243549
0.0009989756
0.0013253201
0.0021369878
0.0023456623
0.0022943993
0.0021597745
0.0020312101
0.0019077151
0.0017604746
0.0015807589
0.0013817066
0.0011770179
0.00097020738
0.00076004847
0.00054959924
0.00034653876
0.00020773462
0.00029799976
0.00073026265
0.0012234394
0.0013605208
0.00096872648
0.0016078592
0.0021752362
0.0022513341
0.0020446754
0.0018080869
0.0016786038
0.0016459489
0.0016265421
0.0015475555
0.0013999378
0.001216352
0.0010302331
0.00085533628
0.00068920674
0.00052758891
0.00036589282
0.00022050256
0.00022809677
0.00050141411
0.0010517934
0.0014583629
0.0013650377
0.00082661677
0.0019717738
0.0020372149
0.0017031793
0.0013367168
0.0011628692
0.0011977609
0.0013207742
0.0014041625
0.0013782217
0.0012517341
0.0010738008
0.0008910575
0.00072799775
0.00058773084
0.00046146154
0.00033987314
0.00022448234
0.00021959833
0.00037677145
0.00086816291
0.0013997218
0.0015518609
0.0011358453
0.00072993027
0.001764331
0.0018719826
0.0013644172
0.00087913066
0.00063216818
0.00064474271
0.00083164828
0.0010580357
0.0012055698
0.0012209697
0.0011213133
0.000959686
0.00078568279
0.00062962953
0.00050113224
0.00039006492
0.00029819635
0.00023593664
0.00024060808
0.00038551316
0.00078890063
0.0013071029
0.0015939595
0.0014225354
0.00081322106
0.0014641326
0.00094383214
0.00057000101
0.00038249176
0.00035077825
0.00041050401
0.00059962265
0.00082428668
0.00098122102
0.0010224107
0.00095685155
0.00083111656
0.00068717519
0.00055192937
0.0004341341
0.00032575402
0.00026346325
0.00027093445
0.00033527429
0.00051361997
0.00082865017
0.0012518392
0.0015625047
0.001540523
0.00092934896
0.00040640031
0.00093580124
0.0006925007
0.00039125063
0.00032263293
0.00031942517
0.00032818828
0.00035723028
0.00043627847
0.00056064783
0.000673185
0.0007260157
0.00070884362
0.00063602991
0.00054254182
0.00045032333
0.00035760501
0.00026062181
0.00023922232
0.00033368085
0.00049345464
0.00068463729
0.00091863195
0.0012323947
0.0015020062
0.0015433027
0.0010355027
0.00041846016
0.0002303524
0.00019435017
0.00029932569
0.0004325517
0.00048738206
0.00046401552
0.00040273127
0.00036088525
0.00035318997
0.00035974399
0.00036786411
0.00036320404
0.00035226668
0.00032499052
0.00029252035
0.00024706824
0.00018894375
0.00023026732
0.00042137418
0.00063118826
0.00079589916
0.00096776949
0.0011989705
0.0014162798
0.0014530837
0.0010276238
0.00044432231
8.0766325e-05
0.00028371759
0.00054191357
0.00070867311
0.00072786775
0.00064341712
0.00052645305
0.00042018295
0.0003342906
0.00026226409
0.00019853969
0.00015007309
0.00012105812
0.00011504585
0.00012550524
0.00012896607
0.00012815873
0.00024412377
0.0004940545
0.00067442079
0.00079751952
0.00093590615
0.0011239182
0.001297985
0.0013039246
0.00094569097
0.00041647189
0.00017751897
0.00012510484
0.00050418396
0.00083896873
0.0010026979
0.00097614066
0.00084699985
0.00070332872
0.00058763356
0.00049365858
0.00039229037
0.00026419758