/*--------------------------------*- C++ -*----------------------------------*\
| =========                 |                                                 |
| \\      /  F ield         | OpenFOAM: The Open Source CFD Toolbox           |
|  \\    /   O peration     | Version:  2406                                  |
|   \\  /    A nd           | Website:  www.openfoam.com                      |
|    \\/     M anipulation  |                                                 |
\*---------------------------------------------------------------------------*/
FoamFile
{
    version     2.0;
    format      ascii;
    arch        "LSB;label=32;scalar=64";
    class       volScalarField;
    location    "400";
    object      nut;
}
// * * * * * * * * * * * * * * * * * * * * * * * * * * * * * * * * * * * * * //

dimensions      [0 2 -1 0 0 0 0];

internalField   nonuniform List<scalar> 
150387
(
6.2574296e-06
4.7356409e-06
4.3543174e-06
3.8945218e-06
3.4572305e-06
3.5888939e-06
3.4444961e-06
2.2298581e-06
2.5688582e-06
1.1003319e-05
1.5298514e-05
1.7768717e-05
1.8195417e-05
1.711758e-05
1.3574175e-05
8.7949938e-06
5.0130202e-06
3.7434704e-06
3.9465671e-06
1.0222524e-05
6.1379203e-06
1.3708892e-05
2.6284014e-05
3.3076254e-05
3.5281636e-05
3.4330538e-05
3.1707257e-05
2.821998e-05
2.4003815e-05
1.9198814e-05
1.2785966e-05
6.4428067e-06
4.5136681e-06
1.2787548e-05
1.5229075e-05
1.4745878e-05
4.9951644e-06
2.5541896e-06
2.3154584e-05
3.165539e-05
3.6529729e-05
3.9043385e-05
3.9050954e-05
3.7408829e-05
3.4549945e-05
3.0956535e-05
2.6753344e-05
2.2186035e-05
1.7388773e-05
9.6685853e-06
5.2677701e-06
1.4442784e-05
1.9036747e-05
2.1459732e-05
2.4423163e-05
7.8896467e-06
2.2592378e-06
2.1224888e-05
3.4832551e-05
4.4150257e-05
4.6911059e-05
4.4731093e-05
3.9875959e-05
3.4378379e-05
2.9332737e-05
2.5016835e-05
2.2198266e-05
1.980013e-05
1.6160247e-05
9.6703512e-06
5.8377638e-06
1.6350944e-05
2.0658703e-05
2.5056175e-05
2.9351962e-05
2.2328441e-05
1.2924685e-05
2.3903507e-05
3.7518886e-05
4.5535857e-05
4.9922847e-05
5.030276e-05
4.658339e-05
3.9910178e-05
3.2527566e-05
2.5809584e-05
2.0739804e-05
1.7372071e-05
1.4890248e-05
1.2097942e-05
7.6984065e-06
6.3136486e-06
1.7333115e-05
2.1588128e-05
2.7816921e-05
3.2584873e-05
3.2206286e-05
2.444302e-05
7.5175374e-06
1.6367211e-05
3.5017732e-05
4.5414779e-05
4.9901395e-05
4.9883959e-05
4.6401234e-05
4.0807383e-05
3.446681e-05
2.8220886e-05
2.2658989e-05
1.7960429e-05
1.427678e-05
1.1444098e-05
9.0746552e-06
5.9294985e-06
7.1628693e-06
1.7285248e-05
2.1721231e-05
2.9592942e-05
3.3938059e-05
3.774081e-05
3.2211573e-05
1.8895791e-05
3.1008918e-06
3.3115523e-06
2.8775462e-05
3.7402297e-05
4.273331e-05
4.5968956e-05
4.5326865e-05
4.0908054e-05
3.4657742e-05
2.836209e-05
2.3015335e-05
1.8624271e-05
1.5112797e-05
1.2217312e-05
9.7036958e-06
7.4343167e-06
4.8505707e-06
8.1018802e-06
1.5231107e-05
2.1039998e-05
2.8273653e-05
3.4012252e-05
3.8873613e-05
3.5393955e-05
3.0642033e-05
1.3790026e-05
2.060415e-05
3.2273044e-05
3.6103972e-05
3.8259413e-05
3.7790259e-05
3.5203868e-05
3.1727269e-05
2.7231468e-05
2.2311236e-05
1.7980419e-05
1.4561682e-05
1.1941297e-05
9.9081652e-06
8.1055528e-06
6.2898407e-06
4.26221e-06
8.6506356e-06
1.3476489e-05
1.9326135e-05
2.5283636e-05
3.1903589e-05
3.6389884e-05
3.4972398e-05
3.6306843e-05
2.0765385e-05
5.1746194e-06
2.2842667e-05
2.8976273e-05
3.2691035e-05
3.440333e-05
3.3741256e-05
2.9659063e-05
2.4735809e-05
2.0435271e-05
1.675282e-05
1.3259441e-05
1.0714128e-05
8.909749e-06
7.5634297e-06
6.3703238e-06
5.146587e-06
4.0363286e-06
8.127577e-06
1.1686692e-05
1.6770209e-05
2.1652765e-05
2.7633219e-05
3.1739592e-05
3.2810613e-05
3.6785021e-05
2.363504e-05
6.5667195e-06
6.2902647e-06
2.4785762e-05
2.8988673e-05
2.9491114e-05
2.9519033e-05
2.6526794e-05
2.2858523e-05
1.9494314e-05
1.5970753e-05
1.2468727e-05
9.5291959e-06
7.4248766e-06
6.1785474e-06
5.3645132e-06
4.7549417e-06
3.9829607e-06
4.2111745e-06
6.7083346e-06
1.0131605e-05
1.408466e-05
1.8339168e-05
2.2435404e-05
2.6100754e-05
3.0136731e-05
3.4647142e-05
2.4117825e-05
7.8598902e-06
3.4570786e-06
4.506141e-06
6.8133893e-06
9.0624822e-06
1.0357555e-05
1.093965e-05
1.0705163e-05
9.7692218e-06
9.1188382e-06
8.8037187e-06
7.6186785e-06
6.0402027e-06
4.7280872e-06
3.9337602e-06
3.7389504e-06
3.6086282e-06
4.4252026e-06
5.8242289e-06
8.6988145e-06
1.1648334e-05
1.467031e-05
1.7261952e-05
2.0576102e-05
2.7380975e-05
3.0932876e-05
2.3268374e-05
8.1238531e-06
4.1210936e-06
3.5775934e-06
4.7583619e-06
1.0245109e-05
1.2253375e-05
1.052029e-05
7.9812571e-06
6.2892325e-06
5.3714805e-06
4.7218969e-06
4.3932658e-06
4.3006793e-06
4.2202671e-06
3.8363731e-06
2.9458407e-06
2.9101851e-06
3.3306624e-06
4.0656559e-06
5.3001826e-06
7.3142164e-06
9.3554547e-06
1.120076e-05
1.3189649e-05
1.7527039e-05
2.4048827e-05
2.6796619e-05
2.1519944e-05
7.0130945e-06
3.8128749e-06
3.5217271e-06
9.086591e-06
1.9754692e-05
2.2875565e-05
2.0067612e-05
1.4378415e-05
1.0925905e-05
9.2120682e-06
7.7060735e-06
6.2188818e-06
4.8850205e-06
3.9091617e-06
2.7547502e-06
1.9076512e-06
2.4440247e-06
3.2612331e-06
3.7403923e-06
4.7553869e-06
5.8981063e-06
7.1080154e-06
8.173093e-06
1.0214234e-05
1.5267418e-05
2.0409956e-05
2.2198141e-05
1.7985886e-05
4.9814348e-06
3.0169688e-06
4.0393696e-06
1.4174666e-05
2.5755007e-05
2.8912984e-05
2.337702e-05
1.8449e-05
1.5290954e-05
1.2978662e-05
1.0466523e-05
8.0961969e-06
5.9426485e-06
4.2924068e-06
3.4892561e-06
2.4502139e-06
2.4566625e-06
3.3830064e-06
3.4870647e-06
3.6587248e-06
4.1897955e-06
4.9231772e-06
5.9018677e-06
8.1216643e-06
1.298934e-05
1.750685e-05
1.7866185e-05
1.2805845e-05
3.7258968e-06
3.1397608e-06
4.6002474e-06
1.7150473e-05
3.0476634e-05
3.3593279e-05
2.7727285e-05
2.3485418e-05
2.0502992e-05
1.7092066e-05
1.3505646e-05
1.0200245e-05
7.2320091e-06
5.0548926e-06
4.3705438e-06
3.517767e-06
3.4964636e-06
3.8372191e-06
4.260132e-06
4.3731424e-06
4.1350102e-06
3.9784816e-06
4.4021036e-06
5.6170276e-06
8.2842278e-06
1.1733633e-05
1.2202211e-05
7.2321713e-06
3.2231192e-06
1.6471056e-06
3.6776214e-06
1.7647956e-05
3.3924463e-05
3.7381539e-05
3.3179452e-05
3.0355231e-05
2.665361e-05
2.1900653e-05
1.7269634e-05
1.2901705e-05
8.9910286e-06
6.6357082e-06
5.6292848e-06
3.939998e-06
4.0450897e-06
4.5479392e-06
4.9361661e-06
6.2341981e-06
8.4322148e-06
1.0085431e-05
1.009906e-05
8.9824721e-06
7.1556523e-06
6.2549629e-06
5.4759468e-06
4.2282073e-06
2.8481933e-06
2.0379868e-06
4.8259296e-06
1.6602258e-05
3.6173386e-05
3.9905965e-05
3.8913382e-05
3.8263307e-05
3.3592076e-05
2.7632112e-05
2.1959507e-05
1.6485085e-05
1.1842294e-05
9.2613866e-06
6.9721883e-06
4.0344356e-06
4.86839e-06
6.2002385e-06
7.5959274e-06
8.9706465e-06
1.1108753e-05
1.4364289e-05
1.7616458e-05
2.0117723e-05
2.0007321e-05
1.9278725e-05
1.5468774e-05
1.0699369e-05
6.4301896e-06
1.2770137e-05
3.5746348e-05
4.1000838e-05
4.470646e-05
4.6334355e-05
4.0956442e-05
3.444065e-05
2.7310396e-05
2.0891944e-05
1.6086125e-05
1.2618201e-05
7.6774001e-06
4.0595412e-06
5.9550826e-06
8.1940159e-06
1.0682193e-05
1.3351038e-05
1.6135392e-05
1.8638802e-05
2.1453915e-05
2.3654376e-05
2.3369794e-05
2.1860214e-05
2.0558012e-05
1.9726414e-05
1.2197023e-05
8.3432128e-06
3.16476e-05
3.9762596e-05
4.8940373e-05
5.2279616e-05
4.7892419e-05
4.1627272e-05
3.3269038e-05
2.5195092e-05
2.0738763e-05
1.5386508e-05
8.1064315e-06
4.3375005e-06
7.0875909e-06
1.0310495e-05
1.3902136e-05
1.7768768e-05
2.1644813e-05
2.5568216e-05
2.7950794e-05
2.8456963e-05
2.7102781e-05
2.4834532e-05
2.0787725e-05
1.218416e-05
7.7468518e-06
2.1473955e-05
3.5688081e-05
4.954758e-05
5.4771644e-05
5.2830462e-05
4.7880703e-05
3.8042806e-05
3.0456753e-05
2.5741774e-05
1.7743819e-05
8.6008479e-06
4.900988e-06
8.1032377e-06
1.2287348e-05
1.7240945e-05
2.2377367e-05
2.7524567e-05
3.2328462e-05
3.5667775e-05
3.5824061e-05
3.3345662e-05
2.8707918e-05
2.1973381e-05
1.1862771e-05
6.912705e-06
2.8846247e-05
4.3219326e-05
5.2340432e-05
5.4862666e-05
5.1258454e-05
4.1250997e-05
3.5274858e-05
2.93806e-05
2.1638804e-05
8.2993432e-06
6.0380328e-06
9.9855302e-06
1.4248723e-05
2.0063753e-05
2.6956598e-05
3.3473389e-05
3.8191548e-05
3.980082e-05
3.9092646e-05
3.5919298e-05
3.0187227e-05
1.9457208e-05
3.0659516e-06
1.5286367e-05
3.0324932e-05
4.4985481e-05
5.2642132e-05
5.0368251e-05
4.297527e-05
3.8739217e-05
3.2039985e-05
2.4170248e-05
7.5868385e-06
9.4865788e-06
1.5382849e-05
1.8364803e-05
2.2936647e-05
2.9955691e-05
3.6132517e-05
4.1256876e-05
4.3294057e-05
4.0185375e-05
3.1594126e-05
1.6984423e-05
4.0286479e-06
1.5050203e-05
3.3133037e-05
4.4822938e-05
4.4828213e-05
4.1781417e-05
3.8242483e-05
3.334619e-05
2.4298869e-05
7.5641085e-06
1.3789454e-05
2.0833194e-05
2.5015328e-05
2.8558551e-05
3.1739687e-05
3.469195e-05
3.6696304e-05
3.6113562e-05
3.0812124e-05
2.0880778e-05
7.6261798e-06
1.3257156e-05
2.9243641e-05
3.6241349e-05
3.7603499e-05
3.5649247e-05
3.222423e-05
2.2338141e-05
7.1235744e-06
1.6076784e-05
2.2444767e-05
2.7798999e-05
3.2028734e-05
3.5204466e-05
3.6363216e-05
3.412503e-05
2.5688461e-05
1.3205235e-05
4.1947415e-06
5.2434398e-06
2.1087455e-05
2.8816534e-05
3.0004443e-05
3.0772532e-05
1.6209987e-05
5.0287402e-06
1.1159028e-05
1.7819935e-05
2.1248434e-05
2.2371431e-05
2.2629893e-05
2.0833312e-05
1.5924048e-05
7.4937723e-06
2.6411328e-06
7.5314635e-06
1.634761e-05
2.7761443e-05
7.6849104e-06
3.2338771e-06
3.3188801e-06
4.636328e-06
6.7369776e-06
7.2669936e-06
6.3356286e-06
4.135536e-06
4.5290074e-06
3.572859e-06
4.9657162e-06
2.6453509e-06
3.0328019e-06
4.2913355e-06
3.6945532e-06
5.1313241e-06
1.1452763e-05
1.7013007e-05
1.5615209e-05
1.2946018e-05
1.0156545e-05
6.8897368e-06
8.5977751e-06
5.0856853e-06
1.4410583e-05
3.7950848e-05
4.6855417e-05
5.143713e-05
5.2496182e-05
4.8830968e-05
4.218471e-05
3.3519406e-05
2.4248621e-05
1.7765839e-05
9.7009359e-06
1.0254712e-05
8.4939453e-06
7.9475988e-06
8.3733308e-06
4.1708581e-05
6.349215e-05
7.6772977e-05
8.2251643e-05
8.1450715e-05
7.706103e-05
7.0401631e-05
6.2249281e-05
5.2688406e-05
4.18864e-05
3.198043e-05
2.0521568e-05
1.1403655e-05
1.8308979e-05
1.7982531e-05
2.1036384e-05
1.241886e-05
4.7198876e-05
7.0039501e-05
8.5484258e-05
9.2997434e-05
9.4361577e-05
9.1372917e-05
8.554278e-05
7.8296803e-05
7.0383146e-05
6.1828996e-05
5.2328734e-05
4.1789418e-05
2.8013436e-05
1.7133697e-05
2.1424227e-05
2.7278675e-05
2.9501602e-05
1.5994821e-05
1.3630649e-05
5.2224661e-05
7.9543282e-05
9.854042e-05
0.00010719636
0.00010762416
0.0001028214
9.5068747e-05
8.6206882e-05
7.7567901e-05
6.9611375e-05
6.2139186e-05
5.4592036e-05
4.4768897e-05
3.0005956e-05
2.074596e-05
2.5227429e-05
3.6357354e-05
4.3161898e-05
3.6146895e-05
1.6548153e-05
1.1524217e-05
4.9535954e-05
7.6881985e-05
9.6786549e-05
0.00010779751
0.00011216943
0.00011082635
0.0001046361
9.5018536e-05
8.401682e-05
7.3554848e-05
6.4659129e-05
5.72869e-05
5.0868451e-05
4.1329738e-05
2.7946553e-05
2.3407163e-05
2.8334503e-05
4.40375e-05
5.4809254e-05
5.4349617e-05
3.6906715e-05
1.4110989e-05
3.499942e-05
6.4353282e-05
8.6256857e-05
9.920045e-05
0.00010616079
0.00010856639
0.00010639517
0.0001009914
9.1264561e-05
7.9803985e-05
6.852378e-05
5.8731038e-05
5.0764785e-05
4.4198594e-05
3.3889855e-05
2.4922103e-05
2.6709074e-05
3.4149253e-05
5.1165038e-05
6.3672272e-05
6.8617677e-05
5.4680139e-05
3.606869e-05
9.4677349e-06
2.4175144e-05
5.2502944e-05
6.4612789e-05
7.3322396e-05
8.0599569e-05
8.7513459e-05
9.2625111e-05
9.3639193e-05
8.9605098e-05
8.1576538e-05
7.1384175e-05
6.093186e-05
5.1494119e-05
4.3499706e-05
3.6115163e-05
2.5207663e-05
2.2259651e-05
3.0379414e-05
4.1853781e-05
5.8931207e-05
7.083816e-05
7.7137208e-05
6.7581859e-05
5.4972131e-05
1.9745556e-05
2.9550154e-05
3.5698826e-05
4.4922948e-05
5.3571625e-05
6.1592183e-05
6.9942089e-05
7.6612872e-05
7.6525097e-05
7.2653632e-05
6.5805235e-05
5.7417988e-05
4.9006202e-05
4.1405042e-05
3.4682541e-05
2.7352479e-05
1.766146e-05
2.0762781e-05
3.3799849e-05
4.9430705e-05
6.5350768e-05
7.5399859e-05
8.0422923e-05
7.5198927e-05
6.6866776e-05
3.3925016e-05
9.5222825e-06
8.2557408e-06
1.6024082e-05
2.2874472e-05
2.9228235e-05
3.61509e-05
4.5252879e-05
5.2121057e-05
5.7256492e-05
5.6837916e-05
5.2747413e-05
4.6257309e-05
3.9263706e-05
3.3013888e-05
2.8012954e-05
2.3843735e-05
1.8610854e-05
1.2522061e-05
1.9420345e-05
3.5980429e-05
5.3642925e-05
6.7821703e-05
7.5846061e-05
7.9607717e-05
7.8039937e-05
7.1694592e-05
4.2001896e-05
1.8469184e-05
6.9364989e-06
1.2058523e-05
2.0123362e-05
2.8340007e-05
3.3413626e-05
3.4680251e-05
3.5020803e-05
3.4684521e-05
3.3354967e-05
3.0298462e-05
2.5953586e-05
2.1190282e-05
1.7105765e-05
1.4405673e-05
1.2871859e-05
1.0792949e-05
9.2280395e-06
1.8054098e-05
3.6557588e-05
5.3638612e-05
6.5534029e-05
7.1907331e-05
7.5721986e-05
7.6760017e-05
7.0892157e-05
4.5739195e-05
2.1508087e-05
3.616181e-06
2.1649555e-05
3.7227419e-05
4.3739878e-05
4.1438623e-05
3.4265651e-05
2.6454953e-05
2.0249514e-05
1.5882267e-05
1.3038642e-05
1.1083567e-05
9.2044528e-06
7.4047516e-06
6.3622861e-06
6.0950866e-06
5.9778463e-06
7.5594086e-06
1.7669564e-05
3.5264419e-05
4.9814485e-05
5.9235733e-05
6.5024675e-05
6.9968884e-05
7.2511149e-05
6.6807212e-05
4.5929822e-05
2.1831323e-05
3.7245927e-06
8.7652981e-06
3.2848788e-05
5.2411552e-05
6.1893105e-05
6.1127209e-05
5.352618e-05
4.3366623e-05
3.3142265e-05
2.3827439e-05
1.5917828e-05
9.6385978e-06
5.9214264e-06
4.2992928e-06
3.9607367e-06
3.7337688e-06
4.3470635e-06
7.2199532e-06
1.7489732e-05
3.1714368e-05
4.3072811e-05
5.0922096e-05
5.7407878e-05
6.3721634e-05
6.6596214e-05
6.0645758e-05
4.1935644e-05
2.022676e-05
7.1247683e-06
1.6013872e-05
4.1741113e-05
6.2777024e-05
7.2061044e-05
7.1127308e-05
6.5261908e-05
5.7916194e-05
4.934932e-05
3.895459e-05
2.6849394e-05
1.4994745e-05
7.3468675e-06
3.9107287e-06
1.5649577e-06
2.9159147e-06
4.297946e-06
7.6931441e-06
1.5999738e-05
2.6166158e-05
3.5020227e-05
4.2829787e-05
5.0689417e-05
5.7576885e-05
5.9475256e-05
5.2418543e-05
3.5065089e-05
1.3962337e-05
7.09723e-06
1.3264424e-05
4.9973895e-05
7.2951611e-05
8.1529663e-05
8.0450535e-05
7.5559285e-05
6.9652292e-05
6.1723397e-05
5.0369298e-05
3.5555177e-05
2.0107185e-05
9.2903681e-06
4.7531627e-06
2.9003521e-06
3.45549e-06
4.5607578e-06
6.8303547e-06
1.166322e-05
1.8437802e-05
2.6652139e-05
3.6008711e-05
4.5335303e-05
5.1563338e-05
5.1455471e-05
4.3200829e-05
2.7555773e-05
1.3373251e-05
6.5814882e-06
1.6251498e-05
5.407808e-05
8.0465528e-05
8.9743646e-05
9.0193199e-05
8.7431668e-05
8.2912751e-05
7.497697e-05
6.2163564e-05
4.4980641e-05
2.7263031e-05
1.35727e-05
6.7886003e-06
4.8407608e-06
5.4800677e-06
6.0673552e-06
7.1396705e-06
9.2529312e-06
1.2176598e-05
1.7289944e-05
2.6611573e-05
3.7236763e-05
4.3906263e-05
4.2853011e-05
3.3874649e-05
1.9892561e-05
8.9950795e-06
4.7898652e-06
1.3955483e-05
5.3186029e-05
8.5449402e-05
9.6249418e-05
9.9845728e-05
9.9780625e-05
9.6351989e-05
8.8054491e-05
7.3769201e-05
5.5124141e-05
3.6172379e-05
1.9152884e-05
8.4316025e-06
7.5786148e-06
1.1139001e-05
1.3184677e-05
1.5387496e-05
1.8795744e-05
2.2137254e-05
2.3506085e-05
2.4932912e-05
2.8135427e-05
3.1116618e-05
3.159404e-05
2.5463681e-05
1.4965283e-05
7.1750961e-06
9.7344225e-06
4.8489077e-05
8.6424399e-05
9.9611624e-05
0.00010833476
0.00011097433
0.00010803391
9.9122171e-05
8.3528649e-05
6.4450373e-05
4.5003408e-05
2.4189804e-05
1.0226162e-05
1.2588298e-05
2.156426e-05
2.7786558e-05
3.2190726e-05
3.5221961e-05
3.6508596e-05
3.4883814e-05
3.0708022e-05
2.6270928e-05
2.2478793e-05
1.8387777e-05
1.1251431e-05
5.823477e-06
6.1779143e-06
3.8993685e-05
8.0480071e-05
9.8291538e-05
0.00011399336
0.00011877663
0.00011609467
0.00010558647
8.9705376e-05
7.0938098e-05
5.0252045e-05
2.7620876e-05
1.2824446e-05
1.9316612e-05
3.2846663e-05
4.2687941e-05
4.9592228e-05
5.2836851e-05
5.1607321e-05
4.4943162e-05
3.7631135e-05
2.8615599e-05
2.329529e-05
1.9472064e-05
1.3625458e-05
1.2787468e-05
1.4737306e-05
2.3473728e-05
6.5981327e-05
9.0441391e-05
0.00011424145
0.00012126969
0.00011971277
0.00010778303
9.1582224e-05
7.2676363e-05
5.0430132e-05
2.9400203e-05
1.7074954e-05
2.7671995e-05
4.2436678e-05
5.4168099e-05
6.3290892e-05
6.7793641e-05
6.6655986e-05
6.0037701e-05
5.0548502e-05
4.1913872e-05
3.5391421e-05
3.0251607e-05
2.5982224e-05
1.5511517e-05
8.089284e-06
6.5328623e-06
4.291186e-05
7.402837e-05
0.00010564103
0.00011726101
0.0001188469
0.00010525932
8.9233645e-05
6.7857502e-05
4.6338802e-05
3.074163e-05
2.399355e-05
3.7558911e-05
5.0220481e-05
6.1644428e-05
7.2006752e-05
7.8719805e-05
8.0212636e-05
7.6630037e-05
6.9521429e-05
6.063326e-05
5.0028148e-05
3.6449541e-05
2.1237805e-05
1.4329126e-05
1.762918e-05
4.9541886e-05
8.5439124e-05
0.00010557757
0.00011274273
9.9742114e-05
8.2927296e-05
5.936749e-05
4.0005697e-05
3.2173597e-05
3.4598094e-05
4.8188884e-05
5.7469669e-05
6.6896547e-05
7.6548756e-05
8.3993292e-05
8.7054883e-05
8.5053759e-05
7.8536331e-05
6.7998353e-05
5.2919884e-05
3.4457557e-05
2.7347024e-05
1.6830477e-05
5.5556126e-05
8.3907461e-05
9.8931711e-05
9.2340246e-05
7.6924843e-05
5.2673039e-05
3.3197217e-05
3.2432167e-05
4.4506433e-05
5.6615021e-05
6.4136817e-05
7.1720061e-05
7.9222832e-05
8.5340753e-05
8.8375722e-05
8.6842683e-05
7.8692993e-05
6.2709854e-05
4.0937652e-05
2.7991748e-05
1.0554163e-05
1.9835552e-05
5.3411687e-05
7.399652e-05
8.1545712e-05
6.827523e-05
4.7484869e-05
2.8174967e-05
2.9531411e-05
4.7064539e-05
5.8273824e-05
6.6476164e-05
7.3577755e-05
7.8959323e-05
8.1497343e-05
7.9778524e-05
7.2734912e-05
5.9310741e-05
3.9866101e-05
2.8280522e-05
1.089154e-05
1.8594022e-05
3.9320022e-05
6.3942042e-05
5.5764103e-05
4.1279959e-05
2.2445428e-05
2.2052508e-05
3.9630441e-05
5.0219546e-05
5.9345917e-05
6.6644724e-05
7.1421318e-05
7.2880102e-05
6.8459003e-05
5.6388493e-05
3.6468304e-05
2.0707604e-05
9.2133782e-06
1.4950822e-05
3.8840621e-05
3.9529963e-05
3.3678379e-05
2.0736205e-05
1.0606215e-05
2.3254663e-05
3.2087088e-05
4.0034177e-05
4.4957732e-05
4.5069891e-05
4.1378855e-05
3.3466342e-05
2.5794543e-05
1.3012345e-05
2.2005426e-05
1.940338e-05
2.5776514e-05
4.876778e-06
7.2021816e-06
1.1269337e-05
1.6958859e-05
2.0667149e-05
2.1338898e-05
2.0058412e-05
1.2396573e-05
4.6640081e-06
3.1026217e-06
5.2837019e-06
6.3730993e-06
6.8087632e-06
5.6044445e-06
5.9437344e-06
1.2257802e-05
1.860494e-05
1.7660419e-05
1.5066696e-05
1.1891224e-05
9.0996493e-06
8.2524049e-06
4.9544224e-06
1.845001e-05
5.0577398e-05
6.2504862e-05
6.7677356e-05
6.7765419e-05
6.1647179e-05
5.1790029e-05
3.9601361e-05
2.717405e-05
1.9859428e-05
7.6377671e-06
1.3448466e-05
1.1125425e-05
1.0116983e-05
9.7682209e-06
5.5286523e-05
8.5329337e-05
0.00010181879
0.00010819014
0.00010646029
9.9902088e-05
9.0116079e-05
7.8251286e-05
6.4425311e-05
4.9149137e-05
3.6538669e-05
1.9647051e-05
1.4448266e-05
2.6780914e-05
2.412828e-05
2.3925399e-05
1.4467668e-05
6.3361764e-05
9.5386576e-05
0.00011599438
0.00012538038
0.00012645319
0.00012154486
0.00011285996
0.00010217144
9.044855e-05
7.7716039e-05
6.3624346e-05
4.98149e-05
3.3701384e-05
2.3748818e-05
2.9276448e-05
3.8982491e-05
3.9345702e-05
1.9727086e-05
1.5612207e-05
6.9136594e-05
0.000106585
0.00013015764
0.00014079272
0.00014177015
0.00013635851
0.00012682591
0.00011518416
0.00010313528
9.154144e-05
8.0241123e-05
6.8580033e-05
5.6459218e-05
4.2183892e-05
2.8025322e-05
3.3935703e-05
4.9147188e-05
5.9223275e-05
4.85652e-05
2.0407796e-05
1.3273077e-05
6.4082011e-05
0.00010185299
0.00012575626
0.00013686817
0.00014102209
0.00014067991
0.00013552673
0.00012562836
0.00011271937
9.9266248e-05
8.6993791e-05
7.6255026e-05
6.6601011e-05
5.6509367e-05
4.3616671e-05
3.1168902e-05
3.2617898e-05
5.3170255e-05
7.2110416e-05
7.3667035e-05
4.9712437e-05
1.7489878e-05
4.4550504e-05
8.4181302e-05
0.00010750459
0.0001169952
0.00012157075
0.00012569317
0.00012857552
0.00012757926
0.00012042538
0.00010845967
9.4624131e-05
8.1517327e-05
7.0400925e-05
6.1401571e-05
5.2006694e-05
4.0454821e-05
3.0054518e-05
3.1418859e-05
5.4153458e-05
7.9159098e-05
9.0408262e-05
7.4486178e-05
4.7573702e-05
1.1638867e-05
2.9432313e-05
6.7585757e-05
7.7644431e-05
8.0367382e-05
8.2638175e-05
8.7390823e-05
9.6822671e-05
0.00010635531
0.00011110749
0.00010870792
0.00010007245
8.8033259e-05
7.5481152e-05
6.4301724e-05
5.4971347e-05
4.4220685e-05
3.2768027e-05
2.8873637e-05
3.3950609e-05
5.8436971e-05
8.4532456e-05
9.9793635e-05
9.1282173e-05
7.3033079e-05
2.7387096e-05
3.6410768e-05
4.1320137e-05
4.9628732e-05
5.047041e-05
5.0548446e-05
5.6971115e-05
7.0456523e-05
8.2056355e-05
8.8420696e-05
8.8780943e-05
8.3793312e-05
7.5326463e-05
6.5515589e-05
5.5976555e-05
4.6648148e-05
3.4146868e-05
2.6359528e-05
3.0830368e-05
4.4363081e-05
6.8386826e-05
9.0483657e-05
0.00010396933
0.00010036178
8.7766453e-05
4.5279163e-05
1.1734104e-05
9.0968655e-06
2.0360099e-05
2.933317e-05
3.5708259e-05
3.6458362e-05
3.8192012e-05
4.076538e-05
4.8796155e-05
5.6711604e-05
6.1265567e-05
6.1905855e-05
5.911656e-05
5.4126437e-05
4.8324824e-05
4.2452231e-05
3.5153925e-05
2.3752473e-05
2.2799944e-05
3.6489385e-05
5.6941832e-05
7.8875639e-05
9.4526973e-05
0.00010397439
0.00010347345
9.3797343e-05
5.5958894e-05
2.2695881e-05
7.3603547e-06
1.2158481e-05
2.7777626e-05
4.0545541e-05
4.7026604e-05
4.4098731e-05
3.8264718e-05
3.4289383e-05
3.3232543e-05
3.2970067e-05
3.1839131e-05
3.0006927e-05
2.800494e-05
2.6087476e-05
2.4595592e-05
2.14923e-05
1.5526461e-05
2.1446868e-05
4.3173336e-05
6.6320037e-05
8.3575739e-05
9.3572742e-05
0.00010025423
0.00010156532
9.2772316e-05
6.0334517e-05
2.7741323e-05
4.0344232e-06
2.849739e-05
4.8974637e-05
6.1871295e-05
6.4455193e-05
5.8724843e-05
4.7993079e-05
3.6552276e-05
2.6679774e-05
1.9633086e-05
1.4989313e-05
1.1818256e-05
9.7906178e-06
9.2135715e-06
9.9867412e-06
1.0233922e-05
1.0391938e-05
2.2794326e-05
4.8393575e-05
6.8774514e-05
8.0568631e-05
8.7496735e-05
9.3550013e-05
9.5760785e-05
8.7231294e-05
5.9785855e-05
2.8322869e-05
4.1047495e-06
1.195604e-05
3.9332121e-05
6.3686622e-05
7.7730459e-05
8.0188662e-05
7.5053754e-05
6.6665988e-05
5.686055e-05
4.5530374e-05
3.2713085e-05
1.9570853e-05
9.8241551e-06
5.0271278e-06
4.3346549e-06
4.7397402e-06
5.2675855e-06
9.6164921e-06
2.6349717e-05
4.9047769e-05
6.3944504e-05
7.21448e-05
7.8666295e-05
8.5204291e-05
8.7424584e-05
7.8503812e-05
5.361627e-05
2.5654178e-05
7.5026978e-06
1.9988555e-05
5.1926765e-05
7.9544908e-05
9.2956152e-05
9.3797401e-05
8.8242959e-05
8.1377626e-05
7.4030472e-05
6.3765915e-05
4.8332658e-05
2.8867941e-05
1.2375622e-05
4.899942e-06
1.5996032e-06
2.5894018e-06
4.7749329e-06
1.1848395e-05
2.7872796e-05
4.426687e-05
5.4883168e-05
6.2246162e-05
6.9603273e-05
7.6203184e-05
7.7143884e-05
6.6883099e-05
4.4002147e-05
1.684324e-05
7.1610057e-06
1.5955891e-05
6.377979e-05
9.4054963e-05
0.00010675331
0.00010718832
0.00010213267
9.6302872e-05
8.9450629e-05
7.8170632e-05
5.9768738e-05
3.6204418e-05
1.5071737e-05
5.8975334e-06
3.0781612e-06
3.790822e-06
5.8590333e-06
1.2044017e-05
2.3044569e-05
3.474281e-05
4.4869033e-05
5.3637765e-05
6.1473793e-05
6.6656663e-05
6.5272443e-05
5.3841429e-05
3.3475194e-05
1.6342479e-05
6.3982413e-06
1.8372826e-05
7.0698343e-05
0.00010496586
0.00011861278
0.00012045748
0.00011718457
0.00011254678
0.00010523195
9.1685937e-05
7.0256277e-05
4.4310324e-05
2.0100312e-05
8.205929e-06
6.78745e-06
7.2601073e-06
7.54934e-06
9.9477408e-06
1.4813917e-05
2.2254498e-05
3.2981691e-05
4.477453e-05
5.3312485e-05
5.6622161e-05
5.2674878e-05
4.0685091e-05
2.3237087e-05
1.2656413e-05
4.9756622e-06
1.4406392e-05
7.0967479e-05
0.00011233047
0.00012815867
0.0001330907
0.00013191591
0.00012755798
0.00011841814
0.00010186807
7.8197202e-05
5.098364e-05
2.4246982e-05
1.0880653e-05
1.4107832e-05
1.8906235e-05
1.9188433e-05
1.9573866e-05
2.1372928e-05
2.3734371e-05
2.8058123e-05
3.6018403e-05
4.3387606e-05
4.4793029e-05
3.9847723e-05
2.8803308e-05
1.5943849e-05
8.1082007e-06
1.0350426e-05
6.5552144e-05
0.00011443943
0.00013360888
0.00014366015
0.00014408541
0.00013844338
0.00012583883
0.00010602914
8.1033192e-05
5.3348665e-05
2.6676008e-05
1.4900338e-05
2.5584427e-05
3.7905525e-05
4.2592609e-05
4.2529406e-05
3.9590496e-05
3.522553e-05
3.1074126e-05
3.1100294e-05
3.2806503e-05
3.1054881e-05
2.4021151e-05
1.3733624e-05
7.0860347e-06
6.0632052e-06
5.268192e-05
0.00010795074
0.00013272473
0.00015027205
0.00015151154
0.00014336948
0.00012576499
0.00010293745
7.7045616e-05
5.0129345e-05
2.7895287e-05
2.1452938e-05
3.7784941e-05
5.4273479e-05
6.3534735e-05
6.5632014e-05
6.0193193e-05
4.9288625e-05
3.6785156e-05
2.9813345e-05
2.7571362e-05
2.6521483e-05
2.4402557e-05
1.7222733e-05
1.6576821e-05
1.7961721e-05
2.9141962e-05
9.0304954e-05
0.00012300224
0.00015018659
0.00015336599
0.0001432525
0.00012066694
9.4023241e-05
6.6401524e-05
4.3234539e-05
3.0381636e-05
3.1628437e-05
4.89388e-05
6.5068842e-05
7.732822e-05
8.3526298e-05
8.0272335e-05
6.8598406e-05
5.4072224e-05
4.385754e-05
3.99336e-05
3.9931889e-05
3.7478723e-05
3.4377305e-05
2.1004778e-05
9.7347095e-06
8.6899354e-06
5.7998554e-05
0.00010132715
0.00013963702
0.00014963416
0.00014061844
0.00011455874
8.3291671e-05
5.2690113e-05
3.7237159e-05
3.6419412e-05
4.4391762e-05
5.9162143e-05
7.2455774e-05
8.5250159e-05
9.4948542e-05
9.7577424e-05
9.2400123e-05
8.3278478e-05
7.5906471e-05
7.0838548e-05
6.3869264e-05
4.9031773e-05
2.7626306e-05
1.7769307e-05
2.057958e-05
6.7128332e-05
0.00011462572
0.00013790305
0.00013609657
0.00011098775
7.8760705e-05
4.5192839e-05
3.7497117e-05
4.4672155e-05
5.6807437e-05
6.8681965e-05
7.9748717e-05
9.1366742e-05
0.00010174032
0.0001079398
0.00010844368
0.0001044184
9.8004671e-05
8.8368301e-05
7.1102063e-05
4.5231135e-05
3.3597697e-05
2.1479164e-05
7.4117437e-05
0.00011196067
0.00012528543
0.00010785459
8.2117992e-05
4.6363016e-05
3.717156e-05
4.8946816e-05
6.3712384e-05
7.5788685e-05
8.6706077e-05
9.7163612e-05
0.00010647602
0.00011323491
0.00011596635
0.00011342771
0.00010369964
8.4500579e-05
5.5016215e-05
3.7434622e-05
1.2573974e-05
2.4193963e-05
6.9872485e-05
9.8240898e-05
0.00010113482
7.8691311e-05
5.198919e-05
3.5832204e-05
4.4088526e-05
6.1787876e-05
7.6095786e-05
8.8334807e-05
9.8505543e-05
0.00010605112
0.00010969993
0.0001078612
9.9109972e-05
8.1439521e-05
5.4303353e-05
3.8735066e-05
1.2607694e-05
2.216616e-05
5.0600568e-05
8.4597652e-05
6.8487543e-05
4.7471944e-05
2.9555838e-05
3.1120566e-05
4.8994976e-05
6.4535111e-05
7.7919931e-05
8.8437793e-05
9.5275851e-05
9.7514304e-05
9.2346007e-05
7.7284894e-05
4.9819321e-05
2.8306697e-05
1.116336e-05
1.7153915e-05
5.1474677e-05
5.0916701e-05
4.3386414e-05
2.7011989e-05
1.521403e-05
2.7993373e-05
4.04324e-05
5.1738956e-05
5.941401e-05
6.078961e-05
5.6637735e-05
4.5721604e-05
3.7433978e-05
1.6922408e-05
2.5253224e-05
2.4125398e-05
3.1832263e-05
8.9931261e-06
1.0262677e-05
1.4639264e-05
2.1130397e-05
2.6313229e-05
2.7368069e-05
2.6395051e-05
1.5003579e-05
6.0568473e-06
4.2537081e-06
5.2966075e-06
6.3207539e-06
7.0104134e-06
6.6350264e-06
6.8036075e-06
1.388863e-05
2.2543836e-05
2.2317522e-05
1.6631814e-05
1.2493632e-05
9.0709425e-06
8.3833996e-06
4.9496816e-06
2.1668218e-05
6.2661564e-05
7.7582559e-05
8.3382694e-05
8.2775164e-05
7.4877099e-05
6.2247019e-05
4.6256412e-05
3.0088423e-05
1.9726192e-05
7.1936318e-06
1.8546149e-05
1.4529066e-05
1.1377228e-05
1.1166346e-05
6.764294e-05
0.00010508026
0.00012527617
0.00013293017
0.00013064753
0.00012223328
0.00010962561
9.4365736e-05
7.6452581e-05
5.6997289e-05
3.8688045e-05
1.748499e-05
1.7737144e-05
3.8422991e-05
3.14806e-05
2.7095199e-05
1.6431456e-05
7.8853683e-05
0.00011946275
0.00014421107
0.00015503634
0.00015583201
0.00014956825
0.00013863201
0.0001249877
0.00010984654
9.3243478e-05
7.5119629e-05
5.5927708e-05
3.4997616e-05
2.8840091e-05
4.0709738e-05
5.419244e-05
5.0390059e-05
2.3577887e-05
1.7480737e-05
8.5581221e-05
0.00013159204
0.00015725777
0.0001677976
0.00016954447
0.00016472752
0.00015451489
0.00014087371
0.00012601286
0.00011128163
9.667068e-05
8.1438192e-05
6.4983593e-05
4.7305619e-05
3.3585725e-05
4.5346218e-05
6.7352566e-05
7.8096953e-05
6.1879886e-05
2.4522547e-05
1.4867858e-05
7.7855568e-05
0.00012464488
0.00014879366
0.00015673791
0.0001595276
0.0001607578
0.00015832634
0.00014978576
0.00013606016
0.00012030733
0.00010521015
9.1606306e-05
7.8852604e-05
6.5910672e-05
5.1995795e-05
3.7094703e-05
3.9424452e-05
6.7978435e-05
9.1839358e-05
9.375019e-05
6.2543527e-05
2.1215914e-05
5.4008927e-05
0.00010328988
0.00012530444
0.00012878658
0.00012788064
0.00013017628
0.00013696566
0.00014235928
0.00013981761
0.00012896405
0.00011365408
9.8006945e-05
8.4235479e-05
7.2586094e-05
6.2036243e-05
4.9902102e-05
3.6824563e-05
3.8329239e-05
6.1136198e-05
9.4920927e-05
0.00011138475
9.4010444e-05
5.7902359e-05
1.3673474e-05
3.2718074e-05
8.3543005e-05
9.3186252e-05
8.9685582e-05
8.5280067e-05
8.0520057e-05
8.7493159e-05
0.00010349848
0.00011770169
0.00012308909
0.00011812279
0.00010608035
9.1548124e-05
7.7857055e-05
6.6340767e-05
5.5960186e-05
4.5035266e-05
3.3059234e-05
3.409033e-05
5.624627e-05
9.5610588e-05
0.00011909864
0.0001137547
8.9811666e-05
3.3889713e-05
4.4580205e-05
5.1620243e-05
6.234355e-05
5.8591706e-05
5.2122077e-05
4.7257892e-05
5.5928337e-05
7.2957443e-05
8.891024e-05
9.8361143e-05
9.9227276e-05
9.2788323e-05
8.2214093e-05
7.0664158e-05
5.9640375e-05
4.75842e-05
3.6008964e-05
3.0263585e-05
3.6778774e-05
6.4588846e-05
9.9717218e-05
0.00012295082
0.0001236742
0.0001074918
5.6057081e-05
1.3905596e-05
1.0146202e-05
2.7529156e-05
3.4241065e-05
4.5194551e-05
4.4770157e-05
4.4933798e-05
4.0706492e-05
3.9984282e-05
4.7215198e-05
5.7632572e-05
6.5799115e-05
6.9802103e-05
6.8841886e-05
6.4119378e-05
5.7396479e-05
4.8863768e-05
3.6321832e-05
2.788497e-05
3.301785e-05
5.1544005e-05
8.0061444e-05
0.00010648295
0.00012403496
0.00012697108
0.00011505656
6.9540389e-05
2.7333595e-05
1.026892e-05
1.3751266e-05
3.0641094e-05
4.9510255e-05
5.9001624e-05
5.7341826e-05
5.117564e-05
3.92452e-05
3.3595591e-05
3.1837035e-05
3.2690979e-05
3.3608465e-05
3.5394644e-05
3.6325676e-05
3.592692e-05
3.2626972e-05
2.3996344e-05
2.4091169e-05
4.2105097e-05
6.8687989e-05
9.2548405e-05
0.00010933068
0.00012119819
0.00012481233
0.00011416853
7.4793091e-05
3.5353437e-05
4.0575569e-06
3.1429446e-05
5.6261551e-05
7.3313794e-05
7.872927e-05
7.4620848e-05
6.5071375e-05
5.2733705e-05
3.9769313e-05