/*--------------------------------*- C++ -*----------------------------------*\
| =========                 |                                                 |
| \\      /  F ield         | OpenFOAM: The Open Source CFD Toolbox           |
|  \\    /   O peration     | Version:  2406                                  |
|   \\  /    A nd           | Website:  www.openfoam.com                      |
|    \\/     M anipulation  |                                                 |
\*---------------------------------------------------------------------------*/
FoamFile
{
    version     2.0;
    format      ascii;
    arch        "LSB;label=32;scalar=64";
    class       volScalarField;
    location    "400";
    object      p;
}
// * * * * * * * * * * * * * * * * * * * * * * * * * * * * * * * * * * * * * //

dimensions      [0 2 -2 0 0 0 0];

internalField   nonuniform List<scalar> 
150387
(
0.0047782142
0.0065036217
0.0056478472
0.0051899797
0.004960799
0.0048419815
0.0051405884
0.0050942512
0.0097400003
0.0086110102
0.0074508664
0.0061695875
0.0053633065
0.0046820115
0.0042887051
0.0041557566
0.0042312213
0.0045291498
0.004837719
0.0050598698
0.0072043474
0.010823117
0.0088096798
0.0065292643
0.0050120694
0.0038555537
0.0031144906
0.0027024078
0.0026005165
0.0027042513
0.0029739283
0.0034149011
0.0038176331
0.0036145851
0.0044761303
0.0060644636
0.0068114534
0.011367629
0.010222244
0.0075525755
0.0047113038
0.0024664671
0.00094870816
8.7721793e-05
-0.00021933841
-0.00016522927
0.00012912359
0.00055840219
0.0010673928
0.0016450356
0.0020976722
0.0017748536
0.0024124735
0.0035827184
0.0054702218
0.0067586296
0.011126454
0.010349765
0.0069648682
0.0034915963
0.00055772597
-0.0014416747
-0.002576551
-0.0030347496
-0.0030091945
-0.0026782721
-0.0021645134
-0.0015603159
-0.00092030306
-0.00026545944
0.00020690312
-0.00010579577
0.00031007964
0.0012513009
0.0032339693
0.005261331
0.0069455571
0.010235504
0.0067744121
0.0026682635
-0.00072335125
-0.0031282537
-0.0045590995
-0.0052222565
-0.0053314638
-0.0050678703
-0.0045823475
-0.0039831027
-0.0033342237
-0.0026699541
-0.0020051677
-0.0015606945
-0.0018323923
-0.0015527429
-0.00078951867
0.00082299104
0.0031039008
0.0055556815
0.0073625528
0.011232446
0.0072467762
0.0029949966
-0.00069888548
-0.0034097005
-0.0052067793
-0.0062317053
-0.0066367942
-0.0065878445
-0.006249325
-0.0057579643
-0.0051970736
-0.0046042977
-0.0039960921
-0.0033814524
-0.0030189246
-0.0032387543
-0.0030837286
-0.0024851494
-0.0012562458
0.00084860283
0.0037350533
0.0063923325
0.0068116274
0.011862876
0.0082103277
0.0037133329
-4.2576171e-05
-0.0029201263
-0.0049488559
-0.0062842097
-0.0070077108
-0.007238787
-0.0071241317
-0.0068058997
-0.0063921949
-0.0059361322
-0.0054483051
-0.0049277104
-0.0043887896
-0.0041022819
-0.0043196143
-0.0042517439
-0.0037937223
-0.0028380276
-0.0010030408
0.001785562
0.0046653673
0.0063077475
0.0094322943
0.0053065946
0.0016316462
-0.0013896421
-0.0037556695
-0.0054811199
-0.0065886759
-0.0071527682
-0.007307316
-0.0071996843
-0.0069606874
-0.0066746747
-0.0063625007
-0.0060002156
-0.0055719764
-0.0051015563
-0.0048702808
-0.0050828824
-0.0050536963
-0.004699101
-0.0039095014
-0.002299908
0.00026207335
0.003265074
0.0053204224
0.0061267877
0.0059543328
0.0030491204
0.00018968047
-0.0022456626
-0.0042225433
-0.0056712229
-0.0065764931
-0.0070175894
-0.0071267955
-0.0070555115
-0.006922023
-0.0067931876
-0.0066482369
-0.006411086
-0.0060580488
-0.0056181777
-0.0054389544
-0.0055993296
-0.0055546942
-0.005240958
-0.0045360423
-0.0030759021
-0.00075393978
0.0022122861
0.0044902078
0.0055656063
0.0052865522
0.0043094093
0.0026075807
0.00029579878
-0.0019052512
-0.0037862396
-0.0051709012
-0.0060355137
-0.0064942728
-0.0066862559
-0.0067454102
-0.0067750757
-0.0068555109
-0.0069372253
-0.0068196969
-0.0065047566
-0.0060819432
-0.0059070559
-0.0059325665
-0.0058289723
-0.0055006813
-0.0048151519
-0.0034580343
-0.0013394216
0.0014567555
0.0037564083
0.0047749327
0.0055930205
0.0052041787
0.0039285878
0.0016863433
-0.00064934678
-0.002653212
-0.0041076044
-0.0050656752
-0.0056365129
-0.0059903167
-0.0062595213
-0.0065467293
-0.0069264531
-0.0073925165
-0.007393261
-0.0070231542
-0.0065177004
-0.0062543861
-0.0061424862
-0.0059446924
-0.0055566845
-0.0048395755
-0.0035341226
-0.0015528975
0.0010332937
0.0032413715
0.0041080509
0.0045324009
0.0054916305
0.0048555792
0.0034372199
0.0012251691
-0.0010435195
-0.0029499583
-0.0043042884
-0.0051707554
-0.005680626
-0.0059938889
-0.0062496222
-0.0065945678
-0.0072070044
-0.0083680796
-0.0084049007
-0.0077104631
-0.0069174162
-0.0065272517
-0.0062573983
-0.0059466344
-0.0054744368
-0.0046961129
-0.0033965209
-0.0015078827
0.0008500265
0.0028011501
0.0036196693
0.0041875807
0.0054096212
0.004627878
0.0029214264
0.00049979981
-0.0018709844
-0.0037916456
-0.0050790208
-0.0058347578
-0.0062197666
-0.0064112707
-0.0065655306
-0.0068292256
-0.0075259966
-0.0088765001
-0.00910777
-0.0083573881
-0.0072158158
-0.0066283257
-0.0062398251
-0.0058417047
-0.0052905689
-0.0044399229
-0.0031118372
-0.0012778079
0.00087378982
0.0026189757
0.0034075671
0.0038498193
0.005444771
0.004593758
0.0027211902
-5.1241817e-05
-0.0026037025
-0.0046050281
-0.0058681119
-0.0065311437
-0.006782705
-0.0068227691
-0.0068022926
-0.0068060513
-0.0069480683
-0.0073529089
-0.0080403667
-0.0077022957
-0.0069414201
-0.0064682406
-0.0060790975
-0.0056441786
-0.0050341425
-0.004110477
-0.0027379497
-0.00093869514
0.0010485222
0.0025385916
0.0033730147
0.0037285512
0.0059930113
0.0049887165
0.0028866418
-0.00032039454
-0.0031478389
-0.0053058127
-0.0065921092
-0.0071922408
-0.0073246593
-0.0072249995
-0.0070391642
-0.0068534961
-0.0066597116
-0.0067530797
-0.0070935615
-0.0069656638
-0.0065968892
-0.0062388772
-0.0058644656
-0.0054152745
-0.00475114
-0.0037446322
-0.0023151669
-0.00053431153
0.0013520674
0.0026911547
0.0033890334
0.0036443778
0.0064810079
0.0056385115
0.0034384947
-0.00021631374
-0.0033917053
-0.0057990684
-0.0071768374
-0.0077631675
-0.0078124795
-0.0076069758
-0.0072985845
-0.0069444568
-0.0065201263
-0.0065031089
-0.0067187709
-0.006756159
-0.0066222478
-0.0064051314
-0.0060653655
-0.0055502
-0.0047743269
-0.0036303783
-0.0020460208
-0.00015731767
0.0017379256
0.0030044076
0.0034455893
0.0036760752
0.0073903342
0.0066559905
0.0044367292
0.00042807185
-0.0031671204
-0.0059413037
-0.0074933392
-0.0081416921
-0.0081654533
-0.0079097098
-0.007534338
-0.0070402999
-0.006407425
-0.006341747
-0.0065647443
-0.0067172586
-0.0067502485
-0.0066828679
-0.0064672137
-0.0060069262
-0.0052174305
-0.0040184693
-0.0024265027
-0.00054656841
0.0014284027
0.0029027593
0.0034296192
0.0079714718
0.0058201878
0.0017299632
-0.0022777015
-0.0055618597
-0.0073807277
-0.0081879387
-0.0082590617
-0.008017892
-0.0076367988
-0.0070409766
-0.0062473236
-0.0061724235
-0.0064385367
-0.0066709709
-0.006799657
-0.006795157
-0.0065914833
-0.0061016247
-0.005230146
-0.0039358772
-0.002262472
-0.00029460377
0.0018347534
0.0037681674
0.004684782
0.0091089997
0.0078554478
0.0038151116
-0.00051791828
-0.0044322151
-0.0066646993
-0.0077504838
-0.0079491542
-0.0077970861
-0.0074619522
-0.0068122374
-0.0059429953
-0.0058921888
-0.0062093071
-0.006499555
-0.006681812
-0.0066953253
-0.0064592563
-0.0058806392
-0.0048856604
-0.0034301045
-0.0015442513
0.00076419213
0.0031743176
0.0053995309
0.0067781858
0.01051998
0.0065913939
0.0022306011
-0.0023178253
-0.0051699777
-0.0066932317
-0.0070992013
-0.007102393
-0.0068679787
-0.0062136282
-0.0053305242
-0.0053602559
-0.0057300872
-0.0060618278
-0.0062722919
-0.0062809484
-0.0059917606
-0.0052989314
-0.0041211956
-0.0024371692
-0.00022070021
0.0023487304
0.0050726979
0.0066895211
0.011185181
0.0095468868
0.005776277
0.00085525641
-0.0026928251
-0.0049226844
-0.0056049391
-0.0058409616
-0.005737275
-0.0051057351
-0.0042666917
-0.0044181677
-0.0048339557
-0.0051804728
-0.0053778378
-0.0053332369
-0.0049350701
-0.0040679452
-0.002617275
-0.00051370527
0.0021355544
0.0046902893
0.0067205836
0.0064086413
0.012110274
0.0093845163
0.005026017
0.00084888108
-0.0022842976
-0.0034292687
-0.003991802
-0.0040461325
-0.0034568789
-0.0026241071
-0.0029041532
-0.0033339739
-0.0036389297
-0.0037426086
-0.0035478701
-0.0029495873
-0.0018027867
-1.9107784e-05
0.0023018329
0.0047020387
0.0066000781
0.0072910037
0.011799583
0.0089853536
0.0052920509
0.0012808193
-0.00050949184
-0.001637311
-0.0019049354
-0.001354073
-0.00050133828
-0.00085917709
-0.0012453546
-0.0014510025
-0.0013961577
-0.00097639144
-0.00011068439
0.001292891
0.003252324
0.0052112089
0.0069840944
0.0075980013
0.011286636
0.010158132
0.0056672196
0.0032522477
0.001357362
0.00064764965
0.0010085945
0.0018247711
0.0014585692
0.0012167527
0.0012277059
0.0014999964
0.0021037256
0.0030243021
0.004306442
0.0059927794
0.0073458329
0.0081309937
0.011846129
0.010127442
0.0075582303
0.004656159
0.002999271
0.0028935422
0.0035328122
0.0032206367
0.0031491891
0.0033779305
0.0037478567
0.0043262413
0.0050431078
0.0061089903
0.0071828448
0.0069646684
0.012243237
0.0088916595
0.0052202934
0.0041255904
0.0042070687
0.0040342918
0.0039945153
0.0041915822
0.0046222132
0.0053305236
0.0058205683
0.0063336687
0.0047542833
0.0043857066
0.0044370515
0.0044714123
0.0048202566
0.004900193
0.0073391069
0.007074096
0.0065948226
0.0054982702
0.0050680768
0.004849317
0.0047847766
0.0051150684
0.005175925
0.0091560144
0.0072026687
0.0062805981
0.0052143817
0.0046698983
0.0040461273
0.0038277984
0.0038298218
0.0039796225
0.00435497
0.004669788
0.0050234504
0.0058918649
0.0057265672
0.0091744637
0.0091959296
0.0062865622
0.0044772852
0.0033328003
0.0024620712
0.0020101348
0.0018721418
0.0020260153
0.002318171
0.0026987719
0.0031524736
0.0034080661
0.0033926199
0.0035876136
0.005171733
0.0053980676
0.009414799
0.0072526382
0.0049072316
0.0021495269
0.00033566379
-0.00076196493
-0.0012873088
-0.0012847635
-0.00099298081
-0.00051275481
5.101719e-05
0.00063380016
0.0011788758
0.0014240642
0.0013282333
0.0019305347
0.0028524954
0.0041885519
0.0061384072
0.0091201092
0.0070122074
0.0041414097
0.00081327895
-0.0015949019
-0.0031432626
-0.0038853273
-0.004052094
-0.0038030169
-0.0033093372
-0.0026724271
-0.0019829003
-0.0013142165
-0.0007305198
-0.00050554742
-0.00066933156
-0.0002102617
0.00062364116
0.0024480395
0.0040579883
0.0064876241
0.0088416481
0.0069342986
0.0041097189
0.00010008287
-0.0027392782
-0.0046703438
-0.0057526714
-0.0061474493
-0.006059722
-0.0056458643
-0.0050571702
-0.0043880241
-0.0036940696
-0.0030311842
-0.0024547666
-0.0022656654
-0.0024548503
-0.0020732437
-0.0013413595
-8.4734024e-05
0.0022189301
0.0042292019
0.0067676845
0.0082214536
0.0040152833
0.00044447089
-0.0025574048
-0.0047493423
-0.0061784367
-0.0069330104
-0.0071428379
-0.0069778024
-0.0065767886
-0.0060550194
-0.0054811355
-0.0048831152
-0.0043019627
-0.0037942169
-0.0036837118
-0.0038644847
-0.0035784097
-0.0029774111
-0.0020169111
-1.0478818e-05
0.0026877644
0.0057451361
0.0046570125
0.009462572
0.0048770446
0.0019064587
-0.0013815199
-0.0039082245
-0.0056883218
-0.0068263101
-0.0073753367
-0.0074917574
-0.0073245544
-0.0069949603
-0.0065945732
-0.0061586607
-0.0056890802
-0.0052097889
-0.0047919228
-0.0047539738
-0.0048932108
-0.0046614362
-0.0041967554
-0.0034835907
-0.0016817689
0.00083035504
0.003862135
0.0056912772
0.0062524316
0.0036814015
0.00044785801
-0.0022181057
-0.0044070191
-0.0059663207
-0.0069075706
-0.0073442374
-0.0074388541
-0.0073194456
-0.0071006998
-0.0068506459
-0.0065764072
-0.0062381343
-0.0058527972
-0.0055230215
-0.0055165917
-0.0055658611
-0.0053714477
-0.0050180155
-0.0044099908
-0.0028074079
-0.00045879774
0.0026914885
0.0047548964
0.0056730268
0.0066922783
0.004406331
0.0024653762
-0.00046306947
-0.0028558599
-0.0048080593
-0.0061284242
-0.0068920555
-0.0072385046
-0.0072794687
-0.0071938036
-0.0070952428
-0.0070203396
-0.0069183435
-0.0066936905
-0.0063703538
-0.0060913548
-0.0060300995
-0.0059801828
-0.0057973395
-0.0054794615
-0.0049050015
-0.0034317144
-0.0012555923
0.0019317435
0.0042192008
0.0056111909
0.0054553797
0.0042946996
0.0026034442
-0.00011554837
-0.0024531682
-0.004379392
-0.0057112808
-0.0065083283
-0.0068857237
-0.0070145957
-0.007053928
-0.0070521145
-0.0071710285
-0.0073254644
-0.0071718362
-0.0068583969
-0.0065580252
-0.0063842709
-0.006220082
-0.0060259732
-0.0056861487
-0.0050790757
-0.0036854323
-0.0016679982
0.0012972903
0.0035269971
0.0045812298
0.0054317589
0.004644824
0.0031938647
0.00069679025
-0.0015971822
-0.0035415448
-0.0049176805
-0.0058062698
-0.0063273645
-0.0066375794
-0.0068408574
-0.0071120682
-0.0074848683
-0.007960635
-0.0078705463
-0.0074880302
-0.0069775801
-0.0066095084
-0.0063799254
-0.0061133159
-0.0057019867
-0.0050115845
-0.0036462415
-0.0017039395
0.00096440661
0.0032053821
0.0039279291
0.0043935868
0.0054674784
0.0041924855
0.0026826016
0.00021120122
-0.0020556124
-0.0039078379
-0.0051511057
-0.0059199925
-0.0063580757
-0.0066423005
-0.0069101692
-0.0073440855
-0.0077027731
-0.0086385792
-0.0086534847
-0.008210562
-0.0073575228
-0.0068558798
-0.0064728942
-0.0061019386
-0.005588866
-0.004790739
-0.0034109544
-0.0015239701
0.00087223396
0.0027637367
0.0034535086
0.0041448894
0.004945609
0.0042256008
0.0021405132
-0.0004569535
-0.0027823258
-0.0046284081
-0.0057767112
-0.0064208742
-0.0067261818
-0.0068786906
-0.0070409446
-0.0072793379
-0.0079343202
-0.0091146943
-0.0092792157
-0.008602891
-0.0075310346
-0.0069118706
-0.006443184
-0.0059888304
-0.0053760062
-0.0044636447
-0.0030352511
-0.001175925
0.00098331854
0.002797151
0.0033967849
0.0038042425
0.0052882737
0.0040513597
0.0018702491
-0.0010928043
-0.0035520855
-0.0054418621
-0.0065117082
-0.0070293016
-0.0071819411
-0.0071763764
-0.0071564812
-0.0070475335
-0.0073567576
-0.0077581694
-0.008349197
-0.0079541787
-0.007238638
-0.0067489206
-0.0063031413
-0.0058076999
-0.0051126112
-0.0040916352
-0.0025955133
-0.00075669206
0.0012898971
0.0026248918
0.0033077068
0.0037567744
0.0057760904
0.0045528598
0.0019153932
-0.0014807587
-0.0041720955
-0.0061918785
-0.0072265531
-0.0076434829
-0.0076560977
-0.0075276639
-0.0073344529
-0.0072018051
-0.0070599727
-0.0072964564
-0.007467421
-0.0073465728
-0.0070114811
-0.006686061
-0.006269383
-0.0057198327
-0.0049159377
-0.0037659027
-0.0021901346
-0.00034696863
0.0016374677
0.0028405912
0.0033292202
0.0037593431
0.006564839
0.0050305822
0.0023136423
-0.0015451317
-0.0045289415
-0.0067594612
-0.0078158804
-0.0081799908
-0.0080870332
-0.0078533869
-0.0075619626
-0.0072880769
-0.0070020859
-0.007007853
-0.0071585464
-0.0071187634
-0.0070194008
-0.0068675119
-0.0065673891
-0.006019657
-0.0051188062
-0.0038068712
-0.0020687036
-0.00011286279
0.001940973
0.0031015564
0.003438992
0.0074256265
0.0060820729
0.0031829234
-0.0010340303
-0.004429689
-0.0069782507
-0.0081440548
-0.0085275679
-0.0083819709
-0.0080990022
-0.007770716
-0.0073882401
-0.0069361564
-0.0068485432
-0.0069699417
-0.007071862
-0.0070757815
-0.0070264068
-0.006816803
-0.0063324902
-0.00546216
-0.0041407592
-0.0023710607
-0.00036264431
0.0017704811
0.0030927745
0.0035143114
0.0069966622
0.0043542088
8.9680527e-05
-0.0037014048
-0.0066725799
-0.0080518693
-0.0085506404
-0.008417219
-0.0081431207
-0.0078347024
-0.0073751599
-0.0067787918
-0.0066602934
-0.0068173886
-0.0069828883
-0.0070643019
-0.0070188946
-0.0067626072
-0.0062086923
-0.0052509054
-0.0038453826
-0.0020225735
3.6404451e-05
0.0021868874
0.003727805
0.0040288083
0.0087624646
0.0061987546
0.0019529983
-0.0020986491
-0.0056182247
-0.0073737728
-0.0081034512
-0.0080510502
-0.0078651002
-0.0076039791
-0.0071044117
-0.0064232611
-0.0063517109
-0.006565932
-0.0067971513
-0.0069322678
-0.0069004671
-0.0066095455
-0.0059560657
-0.0048701537
-0.0033172205
-0.0013435652
0.00097160096
0.0027821722
0.004559659
0.0046192959
0.0094785072
0.0091273817
0.0048248057
0.00041910437
-0.0036196462
-0.0059685457
-0.0070235963
-0.0071515083
-0.0070999414
-0.0069403909
-0.0064028384
-0.0057205932
-0.00576162
-0.0060497534
-0.0063465409
-0.0065318587
-0.0065117237
-0.0061867848
-0.0054416005
-0.0041833568
-0.0024316921
-0.00024204059
0.002204809
0.004674369
0.0056014184
0.0097778806
0.0072661304
0.003902807
-0.00065475765
-0.003697703
-0.0052350208
-0.0056108605
-0.0057634045
-0.0057079029
-0.0051489834
-0.0045482268
-0.0047403531
-0.0051046359
-0.0054590006
-0.0056732699
-0.0056342534
-0.0052351189
-0.0043302322
-0.0028378104
-0.00072601681
0.0020934027
0.003971667
0.0063004037
0.011066875
0.0068198744
0.0035631496
-0.00052328449
-0.002675848
-0.0034146898
-0.0038084615
-0.0038515465
-0.0032853246
-0.0027903287
-0.0030920348
-0.0034792728
-0.0038044888
-0.0039312885
-0.0037481381
-0.0031560237
-0.0019944128
-0.00022175542
0.0021457674
0.0040556635
0.0057987919
0.0059074787
0.010675106
0.0065564471
0.0032001474
0.00075033891
-0.00070056309
-0.0014349447
-0.0015493206
-0.0010188309
-0.00061876331
-0.00097342941
-0.0013454853
-0.0015943288
-0.0016065347
-0.0012250016
-0.00042957327
0.00087098077
0.0028178219
0.0043748086
0.0061172602
0.0059366227
0.010015178
0.0075346597
0.0039163508
0.0026792313
0.0015566243
0.0012752295
0.0016109952
0.0018330053
0.0014919253
0.0012468094
0.0012485265
0.0015200903
0.0021214232
0.0028493761
0.0040075964
0.0059929084
0.006695896
0.0065064602
0.0082410261
0.0081852382
0.0052411208
0.0034844054
0.0030372215
0.0032715217
0.003443236
0.0032299292
0.003198317
0.0035066151
0.0037539433
0.0043558071
0.0048217121
0.0057023108
0.0075400188
0.008027335
0.0067196808
0.0049178023
0.0042013127
0.0040511005
0.0039092731
0.0038847455
0.0040739004
0.0046174491
0.0052166841
0.0057169443
0.0054780433
0.0045577083
0.004460073
0.0044075816
0.0044758161
0.0047340806
0.0066652074
0.0067690579
0.0065072583
0.0053231605
0.0049563124
0.0047552197
0.0047254379
0.005059197
0.0052588951
0.0078554764
0.006220514
0.0056071407
0.0046954134
0.0043268385
0.003744676
0.0035923843
0.0036372358
0.0037668246
0.0041693137
0.0045906902
0.0048752267
0.0051866876
0.0048122974
0.0074895886
0.0077618832
0.004967986
0.0033108792
0.0023864244
0.0016828892
0.0013751209
0.0013949986
0.001694748
0.0020874629
0.0024995521
0.0029635617
0.0032380037
0.0033110882
0.0030975109
0.0043464255
0.0045466425
0.0074379727
0.0054405008
0.0033465179
0.00075797619
-0.00090495756
-0.0017937836
-0.0021430885
-0.0019758219
-0.0015372195
-0.00093699923
-0.00029168586
0.00031101943
0.00085537066
0.0011429716
0.001229743
0.0016479502
0.0023701861
0.0033525742
0.0051635199
0.0072005612
0.0052668996
0.0026825733
-0.00050092343
-0.002804681
-0.0042149763
-0.0048439908
-0.0048929643
-0.0045101203
-0.0038839352
-0.0031386187
-0.0023787848
-0.0016918275
-0.0011226872
-0.00083543431
-0.0007817886
-0.00043914315
0.00023428289
0.0018332034
0.0031669014
0.0054288899
0.006731789
0.0051635551
0.0027597199
-0.0010305706
-0.0037116445
-0.0055931796
-0.006622424
-0.0069559996
-0.0067832619
-0.0062658799
-0.0055781852
-0.0048304706
-0.0040921026
-0.0034298218
-0.0028882178
-0.0026322285
-0.0025962029
-0.0022922895
-0.0017037927
-0.00061736691
0.0014695805
0.0031543914
0.0057640283
0.0063375537
0.0028147653
-0.00046802141
-0.0032858241
-0.0054546869
-0.0068864704
-0.0076390442
-0.0077909284
-0.0075551611
-0.0070784637
-0.0064901399
-0.0058698656
-0.0052544137
-0.0046973365
-0.0042441696
-0.004066842
-0.0040596598
-0.0038311704
-0.0033477408
-0.0025134749
-0.00073348828
0.0017301107
0.0048131354
0.0032199197
0.0070010677
0.0036163053
0.0011753975
-0.0018479947
-0.0043426576
-0.0062058855
-0.0073795654
-0.0079181686
-0.0080011304
-0.0077828524
-0.0073988082
-0.0069556731
-0.0064963344
-0.0060309208
-0.0055950105
-0.0052413417
-0.0051343882
-0.00514516
-0.004977092
-0.0046201717
-0.0039893955
-0.0023900391
-5.5273311e-05
0.0029783887
0.0047769582
0.0051708589
0.0030875031
7.2742786e-05
-0.0025634398
-0.0048125002
-0.006415405
-0.0073994468
-0.0078403071
-0.0078891153
-0.007711204
-0.0074482983
-0.0071689176
-0.0068848096
-0.0065624272
-0.0062318324
-0.005959734
-0.0058823384
-0.0058735449
-0.0057490876
-0.0054516717
-0.00495999
-0.0035031398
-0.0012720706
0.0018763487
0.0040613091
0.0050577419
0.0058210383
0.0042283529
0.0024306179
-0.00049388521
-0.0029527197
-0.0049997747
-0.0064275983
-0.0072711221
-0.0076526283
-0.0077053478
-0.0075886529
-0.0074218839
-0.0073371844
-0.0072282798
-0.0070244961
-0.0067564353
-0.0065104129
-0.0063898114
-0.0063284311
-0.006180463
-0.0059141212
-0.0054514934
-0.0040882695
-0.0019588674
0.001253001
0.0037495696
0.0053657501
0.0058046042
0.0043299787
0.002584209
-0.00027071189
-0.0026809563
-0.0046839155
-0.0060638229
-0.0068874162
-0.0072804319
-0.0074111401
-0.0074359011
-0.0074408829
-0.0075425184
-0.0076814476
-0.0075351847
-0.007264376
-0.0069710404
-0.0067471533
-0.0065709297
-0.0063862758
-0.0061021175
-0.0055950081
-0.0042913059
-0.0022812416
0.00072319312
0.0031600017
0.0043188137
0.0054787072
0.0042609373
0.0027479621
8.2175083e-05
-0.0022807269
-0.0042477227
-0.0056013158
-0.0064389463
-0.0068972963
-0.0071499651
-0.0073236631
-0.007567154
-0.0079423887
-0.00834813
-0.0082873547
-0.0079246746
-0.0074028676
-0.0069768561
-0.0067056501
-0.0064603874
-0.0060976903
-0.0054873558
-0.0041852576
-0.0022235344
0.0004822962
0.0029559926
0.0036998903
0.0041790124
0.0053931255
0.0038375605
0.0022701697
-0.00036252408
-0.0027083124
-0.0045834095
-0.0058033185
-0.0065253075
-0.0069109208
-0.0071550485
-0.0074020101
-0.0078571909
-0.0082736795
-0.0090933517
-0.009109815
-0.0087009257
-0.0078190673
-0.0072349742
-0.0068158846
-0.0064518686
-0.0059732098
-0.0052284371
-0.0038812948
-0.0019598395
0.00049480441
0.0025237761
0.0032862498
0.0040383604
0.0047926545
0.0039690544
0.0016973479
-0.0010240187
-0.0034216651
-0.0052624471
-0.0063628439
-0.0069469738
-0.0072014627
-0.007325984
-0.0074991071
-0.0077521947
-0.0085753167
-0.0094862549
-0.0096465549
-0.0090429402
-0.0079880674
-0.0073145301
-0.0068174058
-0.0063615128
-0.0057659437
-0.0048792418
-0.0034540763
-0.0015448413
0.00069517904
0.0026345692
0.0032956016
0.0037012596
0.0051050406
0.003715432
0.0013417492
-0.0017286856
-0.0042457856
-0.0060998808
-0.0070882172
-0.0075226508
-0.0076112725
-0.0075740423
-0.0075651134
-0.0074589518
-0.0080094614
-0.0083717913
-0.0088872878
-0.0084304535
-0.0077161572
-0.0071984315
-0.0067373338
-0.0062366396
-0.0055400848
-0.0045149132
-0.0029935009
-0.0010913049
0.0010824478
0.0024500651
0.0033246795
0.0037361595
0.005563914
0.0041964305
0.001243375
-0.0022432094
-0.0049718211
-0.0069217383
-0.0078397319
-0.0081497991
-0.0080837666
-0.0079251002
-0.0077307972
-0.0076450081
-0.0075620406
-0.0078245336
-0.0079373888
-0.0078493765
-0.0074972859
-0.0071614136
-0.0067504734
-0.0062069655
-0.0054005132
-0.004230697
-0.0026059924
-0.00068791431
0.001435231
0.0026617806
0.0032892151
0.0037525486
0.0063387062
0.0045027998
0.001499753
-0.0024716499
-0.0054566255
-0.0075848053
-0.0084902657
-0.0087185913
-0.0085375321
-0.0082677039
-0.0079945787
-0.0077153507
-0.0075177595
-0.0075148458
-0.0076377059
-0.0075644897
-0.0074541672
-0.0072730291
-0.0069532986
-0.0063985778
-0.0054956595
-0.004177383
-0.0024180052
-0.00042336002
0.0017383438
0.0029306252
0.003483528
0.0071327209
0.0053928488
0.0022004965
-0.0021501265
-0.0054819337
-0.0078906556
-0.0088807409
-0.0091045727
-0.0088644918
-0.0085528192
-0.0082104234
-0.0078251201
-0.0074641949
-0.0073630783
-0.0074274832
-0.0074970926
-0.0074949072
-0.0074451377
-0.0071810619
-0.006628933
-0.0056849232
-0.0043022155
-0.0024975987
-0.00047437956
0.0016918492
0.0030109285
0.0036644255
0.0059897337
0.0031291749
-0.0012540089
-0.0048893186
-0.0076616086
-0.008844983
-0.0091602593
-0.0089256273
-0.0086229367
-0.0082615033
-0.0078084065
-0.007348042
-0.0072021794
-0.0072872952
-0.0074125532
-0.0074889345
-0.0074572301
-0.0072019945
-0.0065888966
-0.005556243
-0.0040884743
-0.00223039
-0.00017244423
0.0019489544
0.0033701416
0.0037102691
0.0078830964
0.0047992058
0.00043920211
-0.0034530165
-0.006677022
-0.0081997384
-0.0087091216
-0.0085770131
-0.0083292714
-0.0080041867
-0.0075385663
-0.0070377831
-0.0069288929
-0.007065057
-0.0072606941
-0.007390025
-0.0073644743
-0.0070711246
-0.0064008212
-0.0052538666
-0.0036523355
-0.0016889537
0.0005457622
0.0021092498
0.0037541088
0.0036181262
0.0084877389
0.0075773708
0.0031076442
-0.0011007026
-0.0047652212
-0.0067937344
-0.0076171032
-0.0076591882
-0.0075237294
-0.0072843133
-0.0068382898
-0.0063718386
-0.0063688026
-0.0065929306
-0.0068716711
-0.0070630291
-0.0070552101
-0.0067354244
-0.0059559793
-0.0046710679
-0.0029003875
-0.00078373018
0.0015530071
0.0036534467
0.004453956
0.0080786225
0.0052444443
0.002216691
-0.0019637747
-0.0045964852
-0.0057885447
-0.0060910184
-0.0061315716
-0.0059838362
-0.00558305
-0.0052116763
-0.0053600072
-0.0056909862
-0.0060579039
-0.0063033166
-0.0062929792
-0.0058985364
-0.0049998312
-0.0034833064
-0.0014320205
0.0012969876
0.0029116693
0.0053479782
0.0089920887
0.0048425435
0.0020050956
-0.0016548479
-0.0032582308
-0.0038741565
-0.0041297477
-0.0040529867
-0.0036886988
-0.0034198111
-0.0036853195
-0.0040718614
-0.0044406551
-0.0046301536
-0.0045094407
-0.0039708004
-0.002863503
-0.0011339887
0.0011907638
0.0029426673
0.0046850017
0.0046803591
0.0085115807
0.0045291458
0.0017638052
-0.00012466012
-0.0012605894
-0.0017609872
-0.001719074
-0.001371399
-0.0011667031
-0.0014890345
-0.0018711126
-0.0021802971
-0.0022851428
-0.0020082273
-0.0013486192
-0.00013754262
0.0017233037
0.0031169309
0.004922269
0.0046544731
0.0078490112
0.0054355276
0.0024648225
0.0018319855
0.0011288283
0.0011293222
0.0013402039
0.0014227828
0.0011088312
0.00083119198
0.00074316285
0.00092112859
0.0014163614
0.001987956
0.0030745734
0.0049688717
0.0056659531
0.0050682711
0.0056088922
0.0056887018
0.0038112413
0.0027438736
0.0027880853
0.0030170406
0.0031487254
0.0029739138
0.0029499678
0.0032635331
0.0033907394
0.0038769928
0.0041188369
0.0050832713
0.0070525708
0.0051805462
0.0050174867
0.0044104883
0.0040863971
0.0039779307
0.0038149933
0.0037907273
0.0039501693
0.0045407909
0.0049925612
0.0054417572
0.0047728713
0.0044631341
0.0045224675
0.0043687273
0.004396314
0.0046424997
0.0059723405
0.0063273629
0.0062654467
0.0051059861
0.0048280811
0.0046870108
0.0047033488
0.0050093862
0.0053746707
0.0065118693
0.0049794903
0.0047148582
0.0039866768
0.0038526855
0.0033663659
0.003333601
0.0034799056
0.0036463874
0.0040314377
0.0044451609
0.0044182097
0.0043740231
0.0039490184
0.0056992787
0.006088143
0.0034140676
0.0018343075
0.0011353418
0.00062938221
0.00051647982
0.00074274117
0.0012369104
0.0017833618
0.0022892117
0.0027844473
0.0030424995
0.0030018885
0.002448749
0.0034415914
0.0037485201
0.0054783337
0.0033934493
0.0014734061
-0.00098954464
-0.0024678887
-0.003177094
-0.0033488841
-0.0029762596
-0.0023383786
-0.0015594015
-0.0007742628
-9.489635e-05
0.00048906804
0.00080595134
0.00090800427
0.0012062806
0.001744236
0.0024146767
0.004076709
0.0052662324
0.0033151759
0.0010116205
-0.0020181385
-0.0042101967
-0.0055595371
-0.0061110943
-0.0060401682
-0.0055051828
-0.0047121462
-0.0038148088
-0.0029365297
-0.0021828583
-0.0015709328
-0.0012331888
-0.0011026879
-0.00081813246
-0.00030796071
0.0010538144
0.0021162162
0.0042067273
0.0048973093
0.0032929785
0.0012275396
-0.0022965009
-0.0048122028
-0.0066730146
-0.00772597
-0.0080514478
-0.007809941
-0.0071840068
-0.0063715082
-0.0055093234
-0.0046843211
-0.0039785084
-0.0034053946
-0.0030917755
-0.0029524282
-0.0026581565
-0.0021746732
-0.0013014116
0.0005658143
0.0019537932
0.0045786114
0.0044753873
0.0015512399
-0.0014439845
-0.004077603
-0.0061887149
-0.0076560636
-0.0084602808
-0.0086675633
-0.0084076109
-0.0078701883
-0.0072054917
-0.0065128891
-0.0058479051
-0.0052730832
-0.0048071214
-0.0045745409
-0.0044635961
-0.004214631
-0.0038071644
-0.0031415014
-0.001577349
0.00060584758
0.0037559793
0.0020845409
0.0051514818
0.0022982058
0.00032449424
-0.0024821793
-0.0048814118
-0.0067487552
-0.0079679397
-0.008606526
-0.0087419873
-0.0085283224
-0.008107112
-0.0076161476
-0.0071121247
-0.006621857
-0.0061895754
-0.0058404832
-0.0056897935
-0.0056075957
-0.0054102352
-0.0050926385
-0.0046094624
-0.0032301231
-0.0011648191
0.0019674522
0.0037229516
0.0040365728
0.0024111458
-0.00042775554
-0.00294686
-0.0051880083
-0.0068566599
-0.0079245076
-0.0084461814
-0.0085676106
-0.0083997402
-0.0081101258
-0.00779861
-0.0074868784
-0.0071561302
-0.0068466155
-0.0065905854
-0.0064826636
-0.0063950472
-0.0062397412
-0.0059870581
-0.0056532876
-0.0043704473
-0.0023172037
0.00085067025
0.0031898483
0.0043954964
0.0051027428
0.003635764
0.0021298631
-0.00077900422
-0.0032306272
-0.0053568873
-0.0068859895
-0.0078273
-0.0082753882
-0.0083727084
-0.0082828513
-0.0080849595
-0.0079758352
-0.0078424172
-0.0076403078
-0.0074027571
-0.0071714502
-0.007024973
-0.0068934508
-0.0067449355
-0.0065201887
-0.0062109447
-0.004963164
-0.0029249115
0.00035868911
0.0031208469
0.0049877446
0.0058389144
0.004124394
0.0023911119
-0.00060988539
-0.0031032251
-0.0052079865
-0.0066769313
-0.0075719486
-0.0080088651
-0.0081572006
-0.0081745143
-0.0081619706
-0.0082313257
-0.0083295739
-0.0081809461
-0.0079476387
-0.0076574213
-0.0074069366
-0.0071785541
-0.0069871472
-0.006746047
-0.0063509555
-0.0051308438
-0.0031585466
-5.0437397e-05
0.0026412823
0.0039567613
0.0056772308
0.0040034185
0.0023866029
-0.00049047704
-0.0029606674
-0.0050123992
-0.0064165707
-0.0072847019
-0.0077524216
-0.0079991708
-0.0081609799
-0.0083931975
-0.0087451748
-0.0090399965
-0.008987614
-0.0086506008
-0.0081242921
-0.0076444885
-0.00731222
-0.0070738579
-0.006740713
-0.0062059
-0.0049527052
-0.0029860202
-0.00017283462
0.0025974717
0.0034131334
0.003976528
0.0053979451
0.0035879242
0.0018378182
-0.0010205624
-0.0034734087
-0.0054207429
-0.0066653877
-0.0073918621
-0.0077670175
-0.0079994384
-0.0082286068
-0.0086831758
-0.0089913132
-0.0096733415
-0.0097177612
-0.0094722443
-0.0085539056
-0.0079087804
-0.0074433368
-0.0070703275
-0.0066033746
-0.0058961457
-0.0045616269
-0.0026055667
-3.1423798e-05
0.002204829
0.0030736426
0.0038828229
0.0046270039
0.0037020201
0.0011498841