/*--------------------------------*- C++ -*----------------------------------*\
| =========                 |                                                 |
| \\      /  F ield         | OpenFOAM: The Open Source CFD Toolbox           |
|  \\    /   O peration     | Version:  2406                                  |
|   \\  /    A nd           | Website:  www.openfoam.com                      |
|    \\/     M anipulation  |                                                 |
\*---------------------------------------------------------------------------*/
FoamFile
{
    version     2.0;
    format      ascii;
    arch        "LSB;label=32;scalar=64";
    class       volScalarField;
    location    "900";
    object      epsilon;
}
// * * * * * * * * * * * * * * * * * * * * * * * * * * * * * * * * * * * * * //

dimensions      [0 2 -3 0 0 0 0];

internalField   nonuniform List<scalar> 
150387
(
0.0023914159
0.00094955203
0.00084859484
0.00081951498
0.00084278443
0.001234879
0.0021319198
0.0039625512
0.0059710625
0.00096164031
0.00078239193
0.00073408633
0.00071668292
0.00071474005
0.00072791518
0.00074450257
0.00076169542
0.00081381137
0.00087921646
0.0010557911
0.002889319
0.00093718916
0.00082216266
0.00082134507
0.0008825175
0.00094874041
0.00098529387
0.00098859625
0.0009635961
0.00091834277
0.00087140899
0.0008510548
0.00086539085
0.00090748348
0.001000118
0.0011747697
0.0027213252
0.0067431178
0.00097688491
0.00089000244
0.00098698075
0.0011245033
0.0012615529
0.0013857881
0.0014917191
0.0015366564
0.0014964029
0.0013781369
0.0012304011
0.0010847502
0.00099185613
0.00097276773
0.00099336016
0.0010346374
0.001072182
0.0020622015
0.0069818306
0.0010230805
0.00099000926
0.0011234163
0.0012861509
0.0014498455
0.0016099625
0.0017820377
0.0019586758
0.0020845802
0.0021196471
0.0020296343
0.0018315413
0.0015857118
0.0013344034
0.0011572707
0.00110447
0.0011022312
0.0010921626
0.0011236475
0.0012606289
0.0011015335
0.0010296963
0.0011712628
0.0013311899
0.0014877699
0.0016514879
0.0018513582
0.0020769426
0.0023010554
0.0024895263
0.0025942535
0.0025977952
0.0024516354
0.002200369
0.0018829953
0.0015433247
0.0013126135
0.0012355698
0.0012105746
0.0011405888
0.0010243188
0.0017448553
0.0012818583
0.0010668718
0.0011519808
0.0012762913
0.0014018984
0.0015522637
0.0017715519
0.0020429256
0.0023111541
0.0025389339
0.0027217705
0.0028324685
0.0028705455
0.0028642226
0.0027520653
0.0024783658
0.0020835871
0.0016798621
0.0014358511
0.0013546919
0.0012857469
0.0011067719
0.0010908699
0.002344892
0.0056539764
0.0011242009
0.0010886676
0.00116508
0.0012676628
0.0014237727
0.0016876231
0.0020360743
0.0023809137
0.002642276
0.0027991191
0.0028880286
0.002989898
0.0030420941
0.0030100785
0.0029576508
0.0028445906
0.0025660541
0.0021435873
0.001737616
0.0015277356
0.0014394275
0.0012729851
0.0010290766
0.0010111093
0.00127242
0.0010182497
0.0010389335
0.0011199229
0.00127756
0.0015724022
0.0019997334
0.0024303493
0.0027325686
0.0028521211
0.002763651
0.0025538182
0.0024122971
0.0024866461
0.0026637406
0.0028287985
0.0028950977
0.0027862393
0.002496826
0.0020797712
0.0017417046
0.0015868521
0.0014384959
0.0011369683
0.00090296687
0.001550673
0.0010411671
0.00094197969
0.00098363172
0.001121555
0.0014101087
0.0018776164
0.0023825069
0.0027524403
0.0029021534
0.002645924
0.0020128039
0.0014315458
0.0011164188
0.0010885685
0.001292865
0.0017888027
0.0023890802
0.0027094598
0.002640839
0.0023377625
0.0019695666
0.0017321508
0.0015811011
0.001281467
0.00092647294
0.001060943
0.0024260469
0.00092018705
0.00087381826
0.00096751731
0.0012072585
0.0016431327
0.0021812216
0.0026497324
0.0029294974
0.0027607041
0.0018301452
0.00094040286
0.0004981585
0.00033847068
0.00032145429
0.00037735891
0.00067945183
0.0013954275
0.0022139092
0.0025738713
0.0024620937
0.002152942
0.0018676273
0.0017005959
0.0014109783
0.0010021431
0.00096666485
0.001557931
0.00081669609
0.0008360449
0.00099933964
0.001353595
0.0018593908
0.0024000041
0.0028174505
0.0029890639
0.0022152422
0.0009867894
0.00039668069
0.00020758443
0.00015427439
0.00015646111
0.00016221451
0.00025986697
0.00068319008
0.0015596377
0.002309593
0.0024661291
0.0022604041
0.0019784119
0.0017972622
0.0015088179
0.0010799149
0.00087069136
0.0036245798
0.00096974007
0.00075825626
0.00082464055
0.0010601928
0.0014897748
0.0020204548
0.0025213352
0.0029519112
0.0028493589
0.0016483629
0.00061677937
0.00025597377
0.00013044468
0.00010875891
8.0405797e-05
9.6260312e-05
0.00014707741
0.00036731744
0.0010882616
0.0020037431
0.0023963172
0.0022905546
0.0020407677
0.0018592563
0.0015682906
0.0011277246
0.00084636982
0.0017174207
0.00087398303
0.00071911896
0.00082999614
0.0011215122
0.0015991852
0.002117817
0.0025957882
0.0030262846
0.0026070981
0.0013743056
0.00051827234
0.00022865414
0.00015049012
0.00051805938
6.2737605e-05
7.3786067e-05
0.00010799677
0.00025462306
0.00082780195
0.0017739798
0.0023115047
0.0022588575
0.0020768847
0.0018961086
0.0015761965
0.0011369913
0.00083896318
0.0016075067
0.00084813102
0.00069462384
0.00083304372
0.001161374
0.0016434799
0.0021207364
0.0026333397
0.0029548984
0.0024285286
0.0013407693
0.00052435144
0.00023176203
0.00016686574
0.00015280887
0.00011073418
9.4042831e-05
0.00012641556
0.00027667515
0.00078803023
0.001747221
0.0022938571
0.0022436219
0.0021015025
0.0018768037
0.001515191
0.0011061354
0.00082965864
0.0017826419
0.00088071445
0.00067797391
0.00082019216
0.0011602365
0.0015906035
0.0020502643
0.0025814233
0.0028078408
0.002439449
0.0015365174
0.00068261388
0.00030928799
0.00019141547
0.00012865891
0.00011253522
0.00013371573
0.00018967284
0.00041401877
0.0010195783
0.0019292582
0.002319254
0.0022582872
0.0021040448
0.0018009265
0.001431871
0.0010580672
0.00083849942
0.0052896643
0.0013558156
0.00068716775
0.00079357435
0.0011125234
0.001474965
0.001901736
0.002413866
0.0026976947
0.0025274504
0.001907555
0.0010322519
0.00048719219
0.00028090813
0.00019003236
0.00017453753
0.00021989496
0.00035044479
0.00071184647
0.0014381099
0.0021485543
0.0023387678
0.002280069
0.0020532677
0.0016949035
0.0013378734
0.00099880707
0.00093362168
0.0037993686
0.0028056944
0.00071365509
0.00075917634
0.001034648
0.0013310328
0.0016934438
0.00218587
0.0025642707
0.0025693568
0.0023114285
0.0016413843
0.00093891123
0.00054448953
0.00038382047
0.00038503062
0.00050426281
0.00075902114
0.001247046
0.0018937713
0.002287482
0.0023537139
0.0022501031
0.0019326743
0.0015692999
0.0012294851
0.00093480525
0.00090575687
0.00081618729
0.00072337757
0.00093385648
0.0011938866
0.0014708153
0.001912057
0.0023457946
0.0025125309
0.0025064668
0.0022736585
0.0017513193
0.0012182583
0.00092864193
0.00093534482
0.0011134614
0.0014221149
0.0018454219
0.0022035564
0.0023428511
0.0023287142
0.002119157
0.0017674551
0.0014355537
0.0011080515
0.00089068279
0.0014609882
0.0010999672
0.00071793773
0.00083188645
0.0010507303
0.0012685285
0.001610795
0.0020405298
0.0023170932
0.0024651173
0.0024951699
0.0023782537
0.0020938925
0.0018158858
0.0017363704
0.0018485469
0.0020307976
0.0022118497
0.0023158584
0.00233061
0.0022086507
0.0019304049
0.0016115256
0.0012779413
0.00097494961
0.001020088
0.0020576906
0.00079330416
0.00075820965
0.00091277359
0.001084658
0.0013263745
0.001690367
0.0019886128
0.0022109994
0.0023843694
0.0024689667
0.0024567455
0.0023503719
0.0022585559
0.0022673137
0.0023065569
0.0023410914
0.0023394135
0.0022402701
0.0020158741
0.0017147371
0.0013811936
0.0010591039
0.00089305567
0.0013136267
0.0013458409
0.00077827038
0.00080463573
0.00092112095
0.0010909885
0.0013472016
0.0016141147
0.0018210267
0.0020210064
0.0021818254
0.0022900308
0.0023699879
0.0024172424
0.0024271512
0.0024010303
0.0023244027
0.0021787987
0.0019562089
0.0016795839
0.0013732126
0.0010761889
0.00088562069
0.00091390871
0.0039298906
0.0011653721
0.00080312735
0.0008050106
0.00090498761
0.0010685771
0.0012653556
0.0014096862
0.0015643918
0.0017283123
0.0018689645
0.0019747418
0.0020412581
0.0020552386
0.0020143638
0.0018969823
0.0017224851
0.0015031615
0.0012580343
0.0010244708
0.00088580425
0.0011067515
0.0024663147
0.0010770903
0.00077882014
0.00080008329
0.0008657379
0.00098457053
0.0011001206
0.0011874867
0.0012846048
0.0013941083
0.0015007485
0.0015717354
0.0015720645
0.0015211523
0.0014154617
0.0012651065
0.001088981
0.00092455995
0.00082867069
0.00088200992
0.0014065215
0.0015605474
0.00084907697
0.00078110341
0.00079927866
0.00086230573
0.00091672742
0.00096713613
0.0010224969
0.0010818166
0.0011331182
0.0011334194
0.0010832499
0.00099863787
0.00089933218
0.00082675153
0.00083440513
0.0010895205
0.0022151611
0.002817706
0.0010303075
0.00074234347
0.00074487273
0.00076211347
0.00077281615
0.00077778512
0.00078060216
0.00078353239
0.00078260033
0.0007694409
0.00075238858
0.00075172488
0.00079297107
0.0011272531
0.0034567549
0.0033691357
0.0010625607
0.0007704675
0.00075720079
0.00070701487
0.00071391233
0.00072330085
0.00073705184
0.00080107437
0.00087154087
0.0011165323
0.00203688
0.0029169783
0.0018370857
0.0015552952
0.0014185472
0.0016524838
0.0035621602
0.0027914721
0.0012047579
0.00080047375
0.00076433628
0.0008204229
0.00095162019
0.0012789141
0.0015117019
0.0027008741
0.0010542782
0.0006244711
0.00058952264
0.00057652567
0.00057011742
0.00057003956
0.0005763326
0.00059576024
0.00062846689
0.00070883965
0.00093568258
0.0010435922
0.0028018916
0.0043987944
0.0021127472
0.00070812108
0.00066525811
0.00066095124
0.00067036251
0.00067808921
0.000676935
0.00066157478
0.00063147782
0.00060243813
0.00058254013
0.00058560658
0.00059260051
0.00065396622
0.00075483149
0.0014247633
0.0013228716
0.0018227602
0.00085414164
0.00076157544
0.00074772749
0.00075946672
0.00077866638
0.0007989669
0.00081508012
0.00081743013
0.0007948036
0.00074555975
0.00067989386
0.00062005469
0.00058996168
0.00059710853
0.000625772
0.00071212929
0.00089439632
0.0015716002
0.0020254123
0.00089558236
0.00078215844
0.00077279264
0.00078028054
0.00079843008
0.00082925252
0.00086773206
0.00090738747
0.00094200507
0.00095870094
0.00094313859
0.00088514129
0.00078317491
0.00067803211
0.00061840469
0.0006167687
0.00063380967
0.0006820603
0.00083248692
0.0013672536
0.0030143467
0.00095011977
0.00078471446
0.00075536738
0.00074459138
0.00074828217
0.00077869228
0.00082358281
0.00086839336
0.0009050407
0.0009361204
0.00096866491
0.00099737061
0.0010073079
0.00096596578
0.00086037779
0.00072833219
0.00064771193
0.00063443285
0.00065002251
0.00068586097
0.00080036873
0.0013586673
0.0013902253
0.00080014985
0.00072268883
0.00069351482
0.000684996
0.000715151
0.00077667478
0.00083812494
0.00087404522
0.00088502855
0.00088793685
0.00089576749
0.00092114325
0.00096733705
0.0010070968
0.00098607223
0.00088611673
0.00075263024
0.00066788255
0.00065433888
0.00066543115
0.00068771505
0.0007144439
0.0017654681
0.0017098575
0.00082354856
0.00070508651
0.00065567245
0.00063600081
0.00066564511
0.0007500146
0.00084384822
0.00088019441
0.00085275581
0.00077963737
0.00070244435
0.00066071699
0.00067024755
0.00073400275
0.00084071915
0.00093971268
0.00094557819
0.00086615621
0.00074913871
0.00068329135
0.00067313067
0.00067252577
0.00065052213
0.00081315322
0.0010827553
0.00071656704
0.0006286238
0.00059934219
0.00062149244
0.00071991931
0.00084928855
0.00089777654
0.00082509257
0.00066071097
0.00048597718
0.00035728875
0.00029192917
0.00029923855
0.0003769914
0.00052235606
0.00071240799
0.00086500022
0.00089201971
0.00082448412
0.0007377081
0.00069944485
0.00068147383
0.00063761995
0.00062594592
0.0014724158
0.0052475567
0.00097471541
0.00062230831
0.00057182947
0.00057967229
0.00066612823
0.00082251665
0.00091302242
0.00083978862
0.00061572521
0.00036840961
0.00018660835
9.3067779e-05
5.9189181e-05
6.5294049e-05
0.00011145126
0.0002288713
0.00042943995
0.00066840485
0.00083073816
0.00084689056
0.00078962406
0.00073996482
0.00070659745
0.00064650858
0.00058404916
0.00074763547
0.0020155151
0.00073774053
0.0005719209
0.00054711526
0.00059727184
0.00074991379
0.00089639211
0.00089821715
0.00068031922
0.00037294238
0.00014528907
3.9289728e-05
1.7526004e-05
1.5558486e-05
1.5238658e-05
1.7336377e-05
6.2367249e-05
0.00020883995
0.00045526122
0.00070299807
0.00082054735
0.00081126424
0.00077854298
0.00073858308
0.0006659602
0.00056421337
0.00061401436
0.0033384728
0.00063143043
0.0005316173
0.00054031028
0.00064463072
0.00081717618
0.0009215789
0.00082560866
0.00050532527
0.00020118249
4.8608445e-05
1.3059003e-05
1.3868572e-05
1.4821553e-05
1.3679408e-05
1.2855504e-05
1.2876557e-05
8.5459867e-05
0.00029487426
0.00057029266
0.00076754992
0.0008114416
0.00080250471
0.00076824471
0.0006864912
0.00056044829
0.00054289456
0.0036225041
0.0012076144
0.00057323876
0.00051198099
0.00054969661
0.00069019305
0.0008512761
0.00091903539
0.00074544557
0.0003825755
0.00012014405
2.5284169e-05
1.2756688e-05
1.599365e-05
4.0639885e-05
3.0310384e-05
1.4316967e-05
1.2119824e-05
3.631499e-05
0.00020006289
0.00047302494
0.00071257449
0.00080565041
0.0008178018
0.00079091631
0.0007011216
0.0005563785
0.00049963555
0.0017035034
0.00087984004
0.00052639402
0.00050572097
0.00056555726
0.00071091161
0.0008562981
0.0009021567
0.00069323908
0.00033593611
0.00010101286
2.3221442e-05
1.2606605e-05
2.1594365e-05
0.00026050942
3.2401461e-05
1.3004843e-05
1.1692426e-05
2.9555788e-05
0.00016609037
0.00042667257
0.00067931662
0.00080327461
0.00083029769
0.00080507437
0.00070097837
0.00053945283
0.00050446463
0.0016487166
0.00082856974
0.00050742755
0.00050722923
0.00057165184
0.00070592937
0.00084284339
0.00088326481
0.00068970485
0.00035963656
0.0001218548
2.6804791e-05
1.262922e-05
1.6366317e-05
4.2959628e-05
1.6364251e-05
1.1649857e-05
1.1452601e-05
4.1969755e-05
0.00018272339
0.00043185406
0.00067696593
0.00081038957
0.0008424268
0.00080693649
0.00068221292
0.00051874921
0.00047075117
0.0017412441
0.00078882827
0.00049726453
0.00050655974
0.0005638261
0.00068088643
0.00081388971
0.00086897959
0.00073036572
0.00043857803
0.00018446834
5.295895e-05
1.4704925e-05
1.1440514e-05
1.0960606e-05
1.0985183e-05
1.1104509e-05
1.8604714e-05
8.3023461e-05
0.00024412449
0.00048211837
0.00070593811
0.00082897001
0.00085089153
0.00079027283
0.00064330703
0.00048494178
0.00042812827
0.0024167057
0.0010044612
0.00049966839
0.00050406318
0.00054560772
0.00064016772
0.00076865448
0.00085568796
0.00078676904
0.00056054497
0.00030068277
0.00012611521
4.8232018e-05
2.3384027e-05
1.6362318e-05
1.6043812e-05
2.4122873e-05
6.6254245e-05
0.00017100087
0.00034733861
0.00056975283
0.0007607242
0.00085260958
0.00084591328
0.00074673759
0.00057931385
0.00045067626
0.00047943207
0.0013610254
0.00051186496
0.00050135884
0.00052397548
0.0005904182
0.00070656773
0.00082305692
0.00082530951
0.00069895798
0.00047310496
0.00026518046
0.000141162
8.6704835e-05
6.7007058e-05
7.0688577e-05
0.00010351733
0.00017951599
0.00030825408
0.00048725361
0.00067986519
0.00081940382
0.0008601598
0.00080847012
0.00067046519
0.00051664187
0.00048017397
0.00059626596
0.00054433834
0.00050346133
0.00050835196
0.00054018563
0.00062919963
0.00075989865
0.00082873091
0.00079905478
0.00067114204
0.00048052353
0.00032015884
0.00023129119
0.00020102471
0.00021105032
0.00026007485
0.00035270853
0.00048761308
0.00064697693
0.0007871955
0.00085354304
0.0008367799
0.00073296634
0.00058493423
0.00048329869
0.00053095276
0.00088237301
0.00058889649
0.00051917687
0.00050032739
0.00050052004
0.00055007425
0.00066518537
0.00078049899
0.00083022367
0.00080922774
0.00071782591
0.00058188242
0.00047114767
0.00041919035
0.00042509092
0.00047777341
0.00056656703
0.00067893832
0.00078483334
0.00084123731
0.0008409766
0.00076343538
0.00063074627
0.00050378486
0.00045805213
0.00062275561
0.0029993225
0.0021302095
0.00057853859
0.00052752286
0.00048289645
0.00048621629
0.00055816125
0.00067242776
0.00077488481
0.00083134127
0.00084438765
0.00081087082
0.00075137926
0.00070252084
0.0006899276
0.00071774116
0.00076823186
0.00081945316
0.00084605848
0.00083349905
0.00076600034
0.00064403842
0.00051957809
0.00045571226
0.00079499923
0.0013697505
0.00084110982
0.00063699778
0.00049563662
0.0004573667
0.00047257247
0.00055042717
0.00064885501
0.00074217601
0.00081107197
0.00085065041
0.00086718533
0.00086995278
0.00086187929
0.00085720495
0.00085688572
0.00084689934
0.00080726809
0.00073411395
0.00062612867
0.00051614845
0.00045851734
0.00051985125
0.00057365116
0.0010637298
0.00061650744
0.00047102095
0.0004325953
0.00045509134
0.00051702106
0.0005990197
0.00067599096
0.00073839166
0.00078356993
0.00081052125
0.00081928614
0.00081015784
0.00078309141
0.00073550475
0.00066393701
0.00057775381
0.00049505823
0.00045347539
0.00050928821
0.00057390057
0.0014650531
0.0010602724
0.00062073941
0.00046664833
0.00041669948
0.00042569992
0.00046546822
0.00052476551
0.0005774873
0.00061828409
0.00064366361
0.00065139424
0.00064020897
0.00060882245
0.0005605561
0.00050457801
0.00046023979
0.00044177844
0.00051317048
0.00057776155
0.0013503751
0.0012989446
0.000950371
0.00045044701
0.00040610304
0.00039280216
0.00040815632
0.00043747528
0.00046578605
0.00048302196
0.00048770305
0.00047846923
0.0004586453
0.00043737703
0.00042455254
0.00043513125
0.00048266129
0.00061935396
0.0013663837
0.0017292309
0.00072069245
0.00056363432
0.000472573
0.00037435774
0.00036782373
0.00037328159
0.00037903621
0.00038164523
0.00038393261
0.00039200154
0.00040739385
0.00043953529
0.00047407432
0.000754451
0.001368838
0.001713818
0.00056451121
0.00043632618
0.00035723784
0.00036200155
0.00037329772
0.00039168863
0.00043038687
0.00050096526
0.00080196909
0.0022266002
0.004164539
0.0016517674
0.0014761856
0.0014316703
0.0018302338
0.0041971798
0.0022076398
0.0015204629
0.0013997771
0.0014402507
0.0015393118
0.0017754872
0.0021917614
0.0034190983
0.0012211674
0.00090106773
0.00086575013
0.00086396892
0.00086907119
0.00089570385
0.00094273226
0.0010094982
0.001080671
0.0011658889
0.0013722795
0.0014002978
0.0031588103
0.0046753618
0.0023386852
0.00085311352
0.00082793987
0.00084067036
0.00085463447
0.00085845907
0.00085091852
0.00083421994
0.00081909399
0.00082338435
0.00085624315
0.00091086638
0.00097424567
0.001039373
0.0010993734
0.0017808353
0.0016578201
0.0021085528
0.0010413897
0.00093509197
0.0009326321
0.00094512644
0.0009500316
0.00094595234
0.00093492231
0.00091403772
0.00088081765
0.00083898231
0.00080416725
0.00079773122
0.00081975145
0.00088468396
0.00091593497
0.0010561637
0.0012384746
0.0019546444
0.0024334341
0.0011467773
0.00099585874
0.00098945675
0.00099641156
0.00099019626
0.00097923269
0.00097209377
0.00097129829
0.00097285926
0.00096791847
0.00094462951
0.00089787745
0.00083978709
0.00079579105
0.00080298379
0.00084397876
0.00088305727
0.00093166317
0.0011170578
0.0017278896
0.0038412107
0.0012641959
0.0010417744
0.0010077408
0.00098589925
0.00094608917
0.00090812796
0.00089028575
0.00088758758
0.00089398765
0.0009052943
0.00092455359
0.0009484694
0.00095361773
0.00092546169
0.00086673893
0.00081228822
0.00080772944
0.00083595536
0.00086465568
0.0008914072
0.0010457767
0.0016499242
0.0016785582
0.0011283026
0.0010092809
0.0009486857
0.00087798537
0.000821692
0.00080587842
0.00080644613
0.00080163222
0.0007866472
0.00076524687
0.00076247087
0.0007909488
0.00084447028
0.00089654671
0.00090854594
0.00086757092
0.00082210941
0.00081949526
0.00084988732
0.00085712983
0.00086995676
0.00084905202
0.0022203664
0.0018823354
0.0011534294
0.0010124252
0.00092752309
0.00082682542
0.00075982656
0.0007566224
0.00076967599
0.00075770629
0.00070092355
0.00062499033
0.00056015113
0.00052851251
0.00054106748
0.00060485909
0.00071144637
0.00081778984
0.00087165921
0.00085245777
0.00082680005
0.00084331719
0.00086375069
0.0008455937
0.00077970565
0.00099598843
0.001391837
0.0010901713
0.00094580471
0.00080859397
0.00072067355
0.00072308414
0.00075573835
0.00075046051
0.0006586663
0.00052051217
0.00038771426
0.00029307223
0.00024555248
0.00025155967
0.00031322897
0.0004363822
0.00060609776
0.00076138368
0.00083768146
0.0008386027
0.00084287331
0.00087126143
0.0008611195
0.00077517289
0.00073591671
0.0016633227
0.0063323821
0.0013680351
0.0010141732
0.00083029456
0.00070767702
0.00069029028
0.00074224573
0.00076792991
0.00066948643
0.00048281454
0.00029743698
0.00016216529
8.7765754e-05
5.7991881e-05
6.3960059e-05
0.00010377347
0.00020115708
0.00037151208
0.00058355707
0.00075134627
0.00082414568
0.0008440322
0.00087585429
0.00087979627
0.00079508373
0.000684247
0.00089796035
0.0026729451
0.0011672918
0.0009241159
0.00073916007
0.00066897893
0.0007102763
0.00077601262
0.00072804527
0.00053230244
0.00030077672
0.00013394191
4.4320556e-05
1.7456153e-05
1.4651279e-05
1.4454852e-05
2.0436329e-05
6.3354736e-05
0.00019331372
0.00040766378
0.00063220811
0.0007755777
0.00083610956
0.00087886403
0.00089411259
0.00081683104
0.00066052766
0.00071998953
0.0041341521
0.0010714148
0.00083249394
0.00067652345
0.00067248963
0.00074347903
0.0007804413
0.00065528586
0.00040149137
0.00018075913
5.8184074e-05
1.3735817e-05
1.1976775e-05
1.276739e-05
1.1884918e-05
1.126298e-05
1.4293309e-05
8.6858237e-05
0.00027647669
0.00052123548
0.00071443695
0.00081909283
0.00087991934
0.00090364517
0.00083121464
0.00065407222
0.00061902661
0.0035327983
0.0017086318
0.00099180682
0.00075501995
0.00065422893
0.00069510922
0.00076330425
0.00076027562
0.00058665497
0.0003208279
0.00012703047
3.4485612e-05
1.1017216e-05
1.2689391e-05
3.7888515e-05
2.9396126e-05
1.2978001e-05
1.1664409e-05
4.2117609e-05
0.00019881407
0.00044375467
0.00066359253
0.00079936166
0.0008805045
0.00090824603
0.00083431992
0.00064470329
0.00055887041
0.0017824866
0.0013978196
0.00090825761
0.0007084438
0.00065669383
0.00071291827
0.00076479247
0.00073999929
0.00055225104
0.00029729914
0.00011635424
2.9867372e-05
1.0769914e-05
1.6716676e-05
0.00026846143
3.1308968e-05
1.1869551e-05
1.1211953e-05
3.4963996e-05
0.00017401512
0.00041050258
0.00063672278
0.00078874104
0.00088528699
0.00090752128
0.00081846509
0.00061819494
0.00057325306
0.00173919
0.0014163444
0.00084617955
0.00069350885
0.00066517155
0.00071762217
0.00075733262
0.00073413607
0.00055938454
0.00032169946
0.00013716182
4.0661204e-05
1.1021678e-05
1.2284391e-05
4.2833333e-05
1.4928828e-05
1.0947806e-05
1.0990784e-05
5.0887931e-05
0.00019588721
0.00042039209
0.00063914116
0.00079679385
0.00089434337
0.00089654898
0.00077899124
0.00058183098
0.00051797616
0.0018132268
0.0014121249
0.00079863674
0.00068626387
0.00066982156
0.0007115352
0.00074552867
0.00074077034
0.00060108667
0.00038504359
0.00019205202
7.6331842e-05
2.3783719e-05
9.5257123e-06
9.370751e-06
9.6725419e-06
9.9527688e-06
2.5319494e-05
0.00010055832
0.00025793036
0.00046805761
0.0006721728
0.00082264276
0.00090055718
0.00086735108
0.00071789899
0.00053514212
0.00046599119
0.0022090977
0.0018933534
0.0007832862
0.00068171099
0.00066883803
0.00069842549
0.00072819307
0.00074677403
0.00066124271
0.00048083212
0.00028634316
0.00014857731
7.2181749e-05
3.4237709e-05
2.0369516e-05
1.9681329e-05
3.5912677e-05
8.6688267e-05
0.00019302606
0.00035431336
0.00054894669
0.00073165201
0.00085656104
0.00089107968
0.00080985198
0.00063186784
0.00049547183
0.00059120106
0.0024445044
0.00078064281
0.00067485787
0.00066316124
0.000680356
0.00070343876
0.00074084023
0.00071999501
0.00059542165
0.00042051234
0.00026733882
0.0001696151
0.00011638935
9.2239912e-05
9.5838726e-05
0.00013129924
0.00020537464
0.00032373455
0.0004809171
0.00065367503
0.00079982301
0.00087579554
0.00084773469
0.00071993612
0.00055909705
0.00055944018
0.00070957889
0.00081694842
0.00066959752
0.00065553235
0.00065940659
0.00067270849
0.00071482064
0.0007466344
0.0007003075
0.00057728409
0.00043408817
0.00032156733
0.00025745404
0.00023282308
0.00024137312
0.00028571883
0.00036785466
0.00048522382
0.0006249604
0.00075897442
0.00084779141
0.00085256465
0.00076762167
0.00062399566
0.00052251233
0.0006077899
0.00093114316
0.00079856699
0.00067932799
0.0006541995
0.00063755685
0.00063472532
0.00066943907
0.00072708304
0.00075320405
0.00071159439
0.00061966108
0.00051980151
0.00044894789
0.0004203757
0.00043154101
0.0004779303
0.00055433258
0.00065236758
0.00075312215
0.00082760312
0.0008393245
0.00077605056
0.0006510448
0.00052664114
0.0005024741
0.00075424506
0.0030194171
0.0022799802
0.00073999911
0.00068844766
0.00062595421
0.00060004217
0.00061309086
0.00067087848
0.00073237595
0.00076540655
0.00075150581
0.00070636805
0.00065880877
0.00063102932
0.00063476534
0.00066751875
0.00071907223
0.00077632876
0.00081793643
0.00081617644
0.0007601564
0.00065314015
0.00054027203
0.00054154663
0.00097005736
0.001526895
0.00097790795
0.0008385746
0.00065976003
0.00058101958
0.00055649043
0.00059656709
0.00066113114
0.00072445363
0.00076659223
0.00078262287
0.00078053226
0.00077231194
0.00077339372
0.00078450057
0.00079840846
0.00080101075
0.0007809561
0.00072480118
0.00063398104
0.00053621835
0.00049968895
0.0006505979
0.00069830047
0.0012981843
0.00084800803
0.00062869728
0.00053510793
0.00052321805
0.00057036154
0.00063146576
0.00069300387
0.00073479464
0.00075972527
0.00077252497
0.00077654279
0.000772475
0.00075696562
0.00072376488
0.00066790817
0.00059221793
0.00052169192
0.00049711774
0.000621945
0.00072548475
0.0017173554
0.0013792962
0.00087323888
0.00065914867
0.00048975337
0.00049631912
0.00052413344
0.00057970938
0.00063142103
0.00066416233
0.00068073122
0.00068283492
0.00067095552
0.00064317821
0.00060069442
0.00054912177
0.00050681876
0.00051212648
0.00062968132
0.00071370392
0.001629599
0.0016852076
0.0012421017
0.00060962138
0.00051062624
0.00047574253
0.00046616199
0.00050904379
0.00054392545
0.00056337634
0.00056769295
0.00055659349
0.00053387536
0.00050784077
0.00049160889
0.00050765391
0.00058393471
0.00078853271
0.0016740526
0.0021215138
0.00095215068
0.00075810385
0.0006563708
0.0004773515
0.00043840704
0.00044255446
0.00045207974
0.00045755907
0.00045923432
0.0004647262
0.00048431047
0.00052628491
0.0005608979
0.00093379974
0.0017292915
0.0022875253
0.00080566515
0.00059533696
0.00043614906
0.00042741029
0.00043528102
0.00045703302
0.00051090399
0.00059811528
0.00092047386
0.00231716
0.0048102978
0.0019283714
0.0016641858
0.0015625002
0.0017417992
0.0077211211
0.00385122
0.0025135645
0.0021993874
0.0021121598
0.0021123158
0.0022871056
0.0026444534
0.0039402893
0.0020814646
0.0016081065
0.0015010264
0.0014695603
0.0014584447
0.0014905385
0.0015490957
0.0016125339
0.0016543524
0.0016669681
0.0017829075
0.0017309409
0.0035114949
0.0053012831
0.0030502808
0.0013420272
0.0012403498
0.0012253676
0.0012182922
0.0012050576
0.0011863591
0.0011731703
0.0011851493
0.001238187
0.0013262884
0.0014121303
0.0014557027
0.0014617938
0.0014408943
0.0020135003
0.0021424115
0.0023086789
0.0012974678
0.0012138897
0.0012106687
0.0012104586
0.0011957603
0.0011686722
0.0011346502
0.0010960747
0.0010601948
0.0010405777
0.0010588529
0.0011282336
0.0012193667
0.0013134682
0.0013213523
0.0013889399
0.0015084303
0.0022967047
0.0026688949
0.0013229232
0.0012368318
0.0012710186
0.0012898041
0.0012716261
0.0012327205
0.0011905726
0.0011555377
0.0011249867
0.0010931294
0.001056538
0.0010192816
0.0010057252
0.0010396977
0.0011330831
0.0012288132
0.0012643172
0.0012633292
0.0013603768
0.0020363853
0.0041703146
0.0014761424
0.001335605
0.0013520103
0.001338302
0.0012709823
0.0011824271
0.0011037317
0.0010461921
0.0010104091
0.00099448103
0.00099793669
0.0010104937
0.0010137582
0.00099964545
0.00098599099
0.0010138417
0.0011044742
0.0011957675
0.0012256822
0.0011817116
0.0012553209
0.0018527525
0.0018851799
0.0014675015
0.0014008517
0.001336916
0.0012145581
0.0010796202
0.00097424504
0.00090358678
0.0008517533
0.00081129523
0.00078360131
0.00078050708
0.00081126907
0.00086833938
0.00092486393
0.00095500102
0.00096739511
0.0010138518
0.0011109222
0.0011975791
0.0011808755
0.0011117914
0.00096569723
0.0024247194
0.0021536358
0.001478495
0.0014102411
0.0013326699
0.0011670176
0.00099592717
0.00088178533
0.0008177487
0.00076043449
0.0006897182
0.00061527071
0.00055703598
0.00053114422
0.00054806088
0.00061536297
0.00072399014
0.00083549652
0.00091021379
0.00095813433
0.0010360498
0.0011460297
0.001191758
0.0011169362
0.00093118326
0.0011048904
0.0016863433
0.0014795208
0.0013763963
0.0011738028
0.00096256951
0.00083869318
0.00078901747
0.00073584688
0.00063771793
0.00051312408
0.00039801204
0.00031618732
0.00027694599
0.00028491183
0.00034453148
0.00046353054
0.0006276074
0.00078457454
0.00089115199
0.00097406367
0.0010873121
0.0011795121
0.0011448738
0.0009541229
0.00081239174
0.0017411985
0.0069797228
0.0017382873
0.0014749548
0.0012527486
0.00099007548
0.00083058633
0.00078556775
0.00075183295
0.00064548607
0.00048149518
0.00032004025
0.00019893931
0.00012477094
9.2095387e-05
9.6307037e-05
0.0001398385
0.00023865868
0.00040628141
0.00061288075
0.00078971914
0.00091292277
0.0010329993
0.0011518951
0.0011599815
0.00098937819
0.00077198354
0.0009582027
0.003111572
0.0016222893
0.0014246366
0.0011058848
0.00086320465
0.00078807007
0.00077822455
0.00070178201
0.00052706074
0.0003292273
0.00017514321
7.9709641e-05
3.4687423e-05
2.2778084e-05
2.3084145e-05
3.8228107e-05
9.5452018e-05
0.0002331381
0.00044733884
0.0006721136
0.00084458698
0.00098507355
0.0011206927
0.001159522
0.0010144182
0.00075282004
0.00077807859
0.0047070885
0.0016040768
0.0013234798
0.00096755064
0.00080656035
0.00079120057
0.00076754982
0.00063483065
0.00042189396
0.00022842662
9.8049457e-05
3.1304768e-05
1.4430477e-05
1.3705011e-05
1.2803807e-05
1.2891312e-05
3.0661433e-05
0.00012344433
0.00032218951
0.00056815155
0.00077882566
0.00094464708
0.0010934102
0.0011491132
0.0010221345
0.000746984
0.00067533871
0.0035524758
0.0022166085
0.0015691358
0.0012064749
0.00088266705
0.00080348943
0.00080221473
0.0007466198
0.00057967456
0.00036069232
0.00018044898
6.3829057e-05
1.7247414e-05
1.3646075e-05
3.7539364e-05
2.9741764e-05
1.3306875e-05
1.6115019e-05
7.1501691e-05
0.00024846258
0.00049861981
0.00073020546
0.00091699113
0.0010740694
0.0011322365
0.0010100928
0.00073319697
0.00061378095
0.001799845
0.0019787313
0.0015092468
0.0011147745
0.00084996387
0.00081973838
0.00080663184