/*--------------------------------*- C++ -*----------------------------------*\
| =========                 |                                                 |
| \\      /  F ield         | OpenFOAM: The Open Source CFD Toolbox           |
|  \\    /   O peration     | Version:  2406                                  |
|   \\  /    A nd           | Website:  www.openfoam.com                      |
|    \\/     M anipulation  |                                                 |
\*---------------------------------------------------------------------------*/
FoamFile
{
    version     2.0;
    format      ascii;
    arch        "LSB;label=32;scalar=64";
    class       volScalarField;
    location    "900";
    object      k;
}
// * * * * * * * * * * * * * * * * * * * * * * * * * * * * * * * * * * * * * //

dimensions      [0 2 -2 0 0 0 0];

internalField   nonuniform List<scalar> 
150387
(
0.00050740146
0.00033911834
0.00033172831
0.00033646103
0.00035278797
0.00040288427
0.00046224083
0.0005843118
0.00050732384
0.00032026772
0.00031127896
0.00031994276
0.00033287792
0.00034179491
0.00034789451
0.00035407346
0.00036360589
0.00037783158
0.0003927213
0.00040696917
0.00043529416
0.00030157017
0.00031276307
0.00036781344
0.0004366871
0.00048539096
0.00050488139
0.00050188528
0.0004853489
0.00045664095
0.0004223777
0.00041050595
0.00041855354
0.00043115801
0.00043690811
0.00041873198
0.00041955009
0.00052586451
0.00032845549
0.0003800645
0.0004875704
0.00057734854
0.00063853849
0.00067573641
0.00069107086
0.00068542175
0.00066006265
0.00061424009
0.00055939906
0.00049857314
0.00046098603
0.0004636268
0.00047739151
0.00047635966
0.00042469771
0.00038632785
0.00047607129
0.00033477301
0.00044933578
0.00057889017
0.0006685734
0.00072695437
0.00076589221
0.00079187677
0.00080559447
0.00080525355
0.00079174119
0.00075630719
0.00069782658
0.00063070703
0.00055729264
0.00050769763
0.00051122935
0.0005263003
0.0005111527
0.00041568535
0.00034076185
0.00036873638
0.00048390988
0.00061014059
0.00068541359
0.00072552854
0.00074765742
0.0007619517
0.00077090506
0.00077603487
0.00077925636
0.00078401864
0.00078552383
0.0007614482
0.00072464177
0.00066455292
0.00058962261
0.00055152721
0.00056049529
0.00057839917
0.00053430936
0.00037780923
0.00035765565
0.00038196047
0.00048006006
0.00059705053
0.00065186633
0.00066797758
0.00067816412
0.00069076899
0.00069615046
0.00069206231
0.00068195994
0.00067269063
0.00067194747
0.00068393944
0.00070809655
0.00071854751
0.00070231373
0.00067156776
0.00061080769
0.00059475286
0.0006140194
0.00061840738
0.00049884945
0.00035269454
0.00038021395
0.00048752049
0.00045615088
0.0005527134
0.00059222476
0.00060222746
0.00062180262
0.00064596058
0.00065958982
0.00065191121
0.00062876988
0.00060427754
0.00058714044
0.00058173093
0.00058431315
0.00059413163
0.00061570297
0.00064495742
0.00065839246
0.00064912319
0.00063119911
0.00064138756
0.0006639808
0.00061276835
0.00041743591
0.00032642875
0.00044810194
0.00049555026
0.0005270701
0.00054350405
0.00057125158
0.0006119291
0.00065295173
0.00064816093
0.0006133782
0.00058204561
0.00055629693
0.00052769865
0.00050544218
0.00051030498
0.00053189092
0.0005540843
0.00057699891
0.00059768094
0.00062300925
0.00063895227
0.00065991796
0.00068926146
0.00068163546
0.00052565778
0.00033735357
0.00040745113
0.00045250561
0.00047112112
0.00049048781
0.00052135516
0.00057773434
0.00065519735
0.00066568532
0.0006205643
0.00058085337
0.00053731342
0.00044717638
0.0003382846
0.00027252172
0.00027020327
0.00031604743
0.00040880095
0.00050265174
0.00054945276
0.00057510472
0.00061521449
0.00066150448
0.00070496358
0.00072150644
0.00061278128
0.00038228842
0.00034953488
0.0005258646
0.00042970002
0.00044096434
0.00047194543
0.00053650989
0.00063099003
0.00067927226
0.00064754492
0.00059414675
0.00054808148
0.00041294087
0.00023380032
0.00013862347
0.00010728048
0.00010634173
0.00011887636
0.00018601651
0.00033722164
0.00048068506
0.00053635613
0.00057943283
0.00064821964
0.00071305987
0.00074723966
0.000670269
0.00045216484
0.00033747006
0.00045814308
0.00039735461
0.00042194289
0.00047931978
0.00058242156
0.0006698057
0.00068192702
0.00062540089
0.00057957343
0.00046940758
0.00024962829
0.00012072133
7.9592188e-05
6.6871615e-05
6.8446599e-05
6.9066098e-05
8.9072995e-05
0.00018522172
0.00037240651
0.00049423388
0.00054721811
0.0006281586
0.00071607887
0.00076502028
0.00070589073
0.00051360313
0.00033446064
0.00058479285
0.00041427764
0.0003744412
0.00041512731
0.00050975433
0.00061940535
0.00069554181
0.0006763682
0.00061371748
0.00055309205
0.00037776618
0.00017390394
9.3293619e-05
5.9722906e-05
5.387622e-05
4.5991323e-05
5.1782978e-05
6.4120238e-05
0.00011435815
0.00028075908
0.00044902505
0.00052139145
0.00060996001
0.00071826801
0.00077717071
0.00072555016
0.00055041376
0.00034052861
0.00045116941
0.00037338176
0.00035705829
0.00041978017
0.00053397419
0.00065472158
0.00070711838
0.00067342768
0.00061002954
0.00051924267
0.0003268137
0.00015138511
8.7266179e-05
6.091619e-05
0.00012260627
4.3519838e-05
4.4842478e-05
5.5084922e-05
9.0140064e-05
0.00023117332
0.00041334305
0.00050291721
0.00059962647
0.00072490833
0.00078496842
0.00072754993
0.00056001666
0.00035025214
0.00041045329
0.00035473586
0.00034256648
0.00042449491
0.00055078023
0.00067670453
0.00070681808
0.00068110032
0.00060317685
0.00050032143
0.00032028293
0.00015148672
8.7685926e-05
6.7817782e-05
7.1399046e-05
4.8897009e-05
5.1051654e-05
5.970157e-05
9.6232472e-05
0.00022666927
0.00040512743
0.000500647
0.00060179582
0.00073266118
0.00077797161
0.0007047987
0.00054360815
0.00035497047
0.0004334715
0.00034802924
0.00033054921
0.00041968359
0.00055584731
0.00067689364
0.00070549745
0.00069809514
0.00060559966
0.00050866453
0.00035874934
0.00018584528
0.00010580497
7.7807798e-05
6.1033531e-05
5.652762e-05
6.1930347e-05
7.5417506e-05
0.00013379754
0.00027381095
0.00042815044
0.0005153256
0.0006218076
0.00073994556
0.0007539048
0.00067308511
0.00050790257
0.0003617397
0.00051680851
0.00037349829
0.00032177717
0.00040596675
0.00054774927
0.00066244563
0.00070394691
0.00071485135
0.00062825506
0.00053250328
0.0004278097
0.00026123252
0.00014790739
0.00010043776
7.7619758e-05
7.3784189e-05
8.4411087e-05
0.00011807621
0.00020709218
0.00035007946
0.00046463512
0.00054374843
0.0006604569
0.0007403944
0.00072580152
0.00063559758
0.00046075271
0.00036029567
0.00057176055
0.00049536749
0.00031405557
0.00037823494
0.00052351077
0.00063359673
0.0006864869
0.00072550496
0.00066906553
0.00056607328
0.00049820613
0.00038035216
0.00024654609
0.00016605924
0.00012939992
0.00012950903
0.00015670265
0.0002153495
0.00031475298
0.00042688996
0.00050498615
0.00059081476
0.00070208387
0.00073644817
0.00069742659
0.00058514092
0.00041880141
0.00035394619
0.00031192075
0.00034194309
0.0004800687
0.00059331033
0.00065160125
0.0007175694
0.00071046896
0.00061963994
0.00055161729
0.00049147761
0.00039789818
0.00030496324
0.00025467302
0.00025577748
0.0002885172
0.00034674968
0.00042136731
0.00048825168
0.00055356427
0.00065521611
0.00072683989
0.00072502011
0.00066293656
0.00051977199
0.00038753546
0.00035805915
0.00034562455
0.00031189338
0.00041881872
0.00054113412
0.00060296134
0.00068183729
0.00072682543
0.00068261741
0.00061928191
0.0005634424
0.00051294542
0.0004537186
0.00041068434
0.00040187155
0.00042125365
0.00045488647
0.00049670249
0.00054856251
0.00062879296
0.00071648536
0.00074580293
0.00071502504
0.00060309825
0.00044160217
0.00036089689
0.00042647553
0.00029740452
0.00035154204
0.00047456246
0.0005412143
0.00061798807
0.00070226323
0.00070966967
0.00068492601
0.0006563269
0.00061528508
0.00057030486
0.00052928337
0.0005091448
0.00051730179
0.00054278435
0.00058682581
0.00065891219
0.00073950048
0.00077527301
0.00074896528
0.00064868947
0.00049299051
0.0003764047
0.00034860307
0.00033703484
0.00031871855
0.00039146879
0.0004691914
0.00053551848
0.00062937707
0.00068359868
0.00069236624
0.0006992799
0.00069521489
0.00068805945
0.00068847457
0.00069337569
0.000699802
0.00072338193
0.00075979221
0.00079058676
0.0007919416
0.000746939
0.00064738117
0.00050517451
0.00038104289
0.00033021973
0.000440533
0.00034473519
0.00032490168
0.00040109099
0.00045328049
0.00052547796
0.00060350231
0.00063409868
0.00065882573
0.00069157177
0.00072190974
0.00074800181
0.00076982495
0.00078214008
0.00078768023
0.00078142311
0.00075288763
0.00069302413
0.00059929557
0.00048008508
0.00037424805
0.00032756748
0.00035686587
0.00030441527
0.00034830091
0.00039231742
0.00043148131
0.00048819784
0.00053957216
0.00057268806
0.0006052827
0.00064182915
0.00067965083
0.00070660363
0.0007104543
0.00069593584
0.00066213455
0.00060404712
0.00051954574
0.00041725342
0.0003431578
0.00030786178
0.00031223902
0.00033029743
0.00033956965
0.00037570523
0.00040077978
0.0004267828
0.00045460434
0.00048436679
0.00051328116
0.00054091354
0.00056208235
0.00055847691
0.00053000857
0.00048067941
0.000413965
0.00035701148
0.00032548092
0.00031356293
0.00036333117
0.00035945464
0.00033807562
0.00035345856
0.00036459353
0.00037397519
0.00037838398
0.00038342505
0.00039092525
0.00039291956
0.0003810414
0.00035922165
0.00033771688
0.00032204511
0.00030909046
0.00031521654
0.00041057093
0.00038523245
0.00034835127
0.00033605253
0.00034030738
0.00033460947
0.00032845438
0.00032325707
0.0003189714
0.00031843664
0.00032344183
0.00033017803
0.00042638993
0.00050542859
0.00044584446
0.00040673043
0.00039038836
0.00046346216
0.00054388391
0.00047444642
0.00048589069
0.00047642878
0.00046112341
0.00048424788
0.00052234492
0.00058781818
0.00066662099
0.00070053002
0.00042294919
0.00043747902
0.00047100017
0.00050096744
0.0005219268
0.00053100321
0.00053456899
0.0005435143
0.00056565848
0.00059744442
0.00060862123
0.00061901169
0.00057565149
0.00064642693
0.00043087843
0.00047359472
0.00055566579
0.00063239496
0.00069428614
0.00073403561
0.00074996589
0.00074010132
0.00070901552
0.0006666699
0.00062995443
0.00061733208
0.00062490327
0.00064007444
0.00063301721
0.00057481511
0.00053132323
0.00046043577
0.00053944231
0.00065544416
0.00076508766
0.00084801529
0.00090466312
0.00093997442
0.0009570901
0.00095290704
0.00092422989
0.00086993503
0.00079724635
0.00072593599
0.0006798632
0.00066867271
0.00068328085
0.00065361233
0.00057579442
0.0004977147
0.00049358153
0.00058642767
0.00072385274
0.00083999335
0.00091621041
0.00096211486
0.00099177067
0.001012782
0.0010287803
0.0010410484
0.0010422668
0.0010222642
0.00097107474
0.0008907583
0.00080269206
0.00073642367
0.00071968448
0.00071997214
0.000673611
0.00056683082
0.00046940451
0.00054497881
0.00059922472
0.00073330431
0.00083626136
0.00088787313
0.00090847698
0.00091820958
0.00092256123
0.00092117697
0.00091693232
0.00091690768
0.00093270845
0.00096134389
0.00098357124
0.00097236217
0.00091736337
0.00083783603
0.00077785842
0.00076418985
0.00075365061
0.00067479263
0.0005398629
0.00044821431
0.00058411686
0.00070690276
0.00079648558
0.0008261294
0.00082969098
0.0008352739
0.00083918836
0.00082611796
0.00079198072
0.00074800022
0.00071089216
0.00069737588
0.00072092367
0.00078242288
0.0008574207
0.00090241074
0.00089058296
0.00084091682
0.00080760437
0.00080486996
0.00077048997
0.00064059536
0.0005038027
0.00045522992
0.00058120032
0.00067514381
0.00074817901
0.00076006157
0.00075641603
0.00077593384
0.00080189348
0.00079306863
0.00073250842
0.00063890164
0.00054415897
0.00047275429
0.00043819831
0.00044637509
0.00050267188
0.00060695277
0.00073145017
0.0008240479
0.00085089139
0.00083940227
0.00083987588
0.00083737444
0.00074267835
0.00058192228
0.00042441522
0.0006414881
0.00068951881
0.00069747772
0.00069361867
0.00073175832
0.00079195871
0.00080440734
0.00072829176
0.0005880549
0.00043818488
0.00031623123
0.00023586069
0.00019949178
0.00020591286
0.00025443995
0.00035214173
0.00049843083
0.00065968725
0.00077894227
0.00083251173
0.0008579643
0.00088002791
0.00082559105
0.00066535397
0.00048276483
0.00048174201
0.00074904032
0.000640414
0.0006513278
0.0006418725
0.00068279463
0.00077376336
0.00082869524
0.00076899271
0.00060327591
0.00040662576
0.00024330555
0.00013298049
7.8525944e-05
6.0145455e-05
6.3625956e-05
9.0371671e-05
0.00016212826
0.0002936068
0.0004733843
0.00065296106
0.00078013961
0.00085300863
0.00090464587
0.00088655828
0.00074423648
0.00052602325
0.00045524862
0.00068858448
0.00062197568
0.00060092486
0.00062162637
0.00072395025
0.00083035217
0.00083245893
0.00068641319
0.00045899037
0.00025001026
0.00011246994
5.1752272e-05
3.9880303e-05
3.6873747e-05
3.6095124e-05
3.5633952e-05
6.0766375e-05
0.00014944114
0.00031726258
0.00052054965
0.00070187269
0.00082832245
0.00091543738
0.00092877168
0.00080811629
0.00057150879
0.00043053483
0.00065930402
0.00056818579
0.00056444232
0.00064237577
0.00078220847
0.00086613384
0.00080416738
0.000593987
0.00034146675
0.00015061599
6.2124214e-05
3.8312856e-05
3.5157368e-05
3.3760445e-05
3.2888808e-05
3.127466e-05
3.5114862e-05
7.5571142e-05
0.00021191734
0.00041432868
0.00062478364
0.00079639364
0.00091943237
0.00095808233
0.00085378096
0.00061387901
0.00042901387
0.0005541681
0.00058036672
0.00051852591
0.00055918801
0.00068022779
0.00082866768
0.00087657776
0.00076949167
0.00052477308
0.00027186211
0.00010666972
5.0581862e-05
3.4374341e-05
3.5942171e-05
4.0828661e-05
3.5308887e-05
3.0886677e-05
3.1416756e-05
4.7641732e-05
0.00015429195
0.00034730025
0.00056889563
0.00077170906
0.00092462809
0.00097873215
0.00088036224
0.000638088
0.00043950963
0.00054707033
0.00053936223
0.00048434894
0.00057006462
0.00071149982
0.00085391702
0.00087445242
0.00075087893
0.00049657422
0.00025022013
9.7264242e-05
5.0791284e-05
3.3749829e-05
3.7593421e-05
8.1898934e-05
3.1683007e-05
2.9171624e-05
3.0652276e-05
4.3439706e-05
0.00013716407
0.00032129687
0.00054478672
0.00076741429
0.0009389013
0.00099236323
0.0008845369
0.00063379316
0.00042648421
0.00055939114
0.00048804421
0.0004637589
0.00058028773
0.00072595866
0.00085904939
0.00087174687
0.00075707899
0.00051321116
0.00027043991
0.00011258465
5.6148901e-05
3.4669346e-05
3.3806818e-05
4.5401156e-05
2.9593984e-05
2.8467194e-05
3.022263e-05
5.2910856e-05
0.00015405359
0.00033359491
0.00055800165
0.00079139631
0.0009630646
0.00099590895
0.00086448062
0.00060580871
0.00040083034
0.00057323008
0.00047077807
0.000443923
0.00057674942
0.00072090538
0.00084754304
0.00087146346
0.00078614386
0.0005709623
0.00033064539
0.00015392201
7.4717311e-05
4.2488973e-05
3.0139847e-05
2.8501716e-05
2.8530991e-05
2.8969207e-05
3.6706808e-05
8.4933077e-05
0.00020245208
0.00038339212
0.00061164654
0.00084297275
0.00098959424
0.00098160128
0.00081641641
0.00055100061
0.00038235796
0.00059549151
0.00050799402
0.00042396891
0.00055679136
0.00069708286
0.0008211327
0.00086765967
0.00082706411
0.00065843975
0.00043222038
0.00023614129
0.00011899829
6.8088356e-05
4.503543e-05
3.6424937e-05
3.6273422e-05
4.4805348e-05
7.4555929e-05
0.00015297987
0.00028515178
0.00047428782
0.00070286844
0.00090897534
0.0010026463
0.00093937747
0.00073979198
0.00048991149
0.00038103994
0.00046564227
0.00040178572
0.00052229048
0.00065531436
0.00077948264
0.00084973076
0.00086109288
0.00075849552
0.00057014714
0.00037263593
0.00022302696
0.00013991312
0.00010024815
8.2055022e-05
8.3238104e-05
0.00010717062
0.00016239478
0.00026246369
0.0004099363
0.00060539753
0.00081451116
0.00096419775
0.00098421947
0.00086176003
0.00063932543
0.00043473844
0.00038975519
0.00038285648
0.00047737165
0.00059797817
0.00072098697
0.00080869671
0.00086775573
0.00084197881
0.0007211236
0.00054949754
0.00038477235
0.00026978979
0.00021144421
0.00019048125
0.00019614368
0.00023197569
0.00030428374
0.00041876406
0.0005747855
0.00075591475
0.00091289034
0.00098011157
0.00092105389
0.00074992945
0.00053411659
0.00040340454
0.00042833969
0.00036783635
0.00043069258
0.00052901421
0.00064735359
0.00074145076
0.00083270264
0.00087649914
0.00084323821
0.00074020091
0.0006030672
0.0004755115
0.00039121934
0.00035794138
0.00036678836
0.00041257296
0.00049487401
0.00061264913
0.00075363526
0.00088603474
0.00096003872
0.000935813
0.0008076787
0.00061314429
0.00044226457
0.00038161772
0.00048890955
0.00039753727
0.00039081716
0.0004555668
0.00056231091
0.0006534054
0.00075454449
0.00084342395
0.00088803224
0.00087401006
0.00081169394
0.00072560363
0.00064731344
0.00060294426
0.00060327157
0.00064516228
0.00071762476
0.00080947509
0.00089730943
0.00094743601
0.00092765479
0.00082539483
0.0006588354
0.00048484667
0.00038514831
0.00037130864
0.00039298275
0.00039632643
0.00047098704
0.00055379477
0.0006453572
0.00074815957
0.00083886301
0.00089455821
0.00091209677
0.00089972182
0.0008728067
0.0008501489
0.00084553933
0.00086293317
0.00089630465
0.00092892621
0.00093869318
0.00090294788
0.00080898129
0.00066384866
0.00050273694
0.00038677741
0.00035265606
0.000363955
0.00039923433
0.00045740348
0.00052860061
0.00061594818
0.00071588753
0.00080554218
0.00087038648
0.00091072219
0.00093066631
0.0009384255
0.00094075876
0.00093973197
0.00093223607
0.00090761305
0.00085287408
0.00075912693
0.00062999204
0.00048936428
0.00038147527
0.00033937351
0.00038222663
0.00037067509
0.00039215609
0.00042994311
0.00048493762
0.00055931134
0.0006479752
0.00072687514
0.00078889413
0.00083099563
0.00085286683
0.00085682562
0.00084267135
0.00080724934
0.00074672392
0.0006589612
0.00055003841
0.00043997527
0.00036411178
0.00032772971
0.00037808066
0.00038311104
0.00039512702
0.00039961912
0.00042705768
0.00047838378
0.00054120003
0.00059706038
0.00064160315
0.00066502652
0.00066646266
0.00064459073
0.00060002272
0.00053738417
0.00046575693
0.00040147896
0.00035806973
0.00031304581
0.00036525373
0.00044880463
0.00037783282
0.00038968713
0.00037723304
0.00039377171
0.00041641737
0.0004398513
0.00045070331
0.00044753239
0.00042930165
0.0003979901
0.00036575751
0.00034289594
0.0003102856
0.00032312726
0.00045499761
0.00041470163
0.00036366054
0.00033984164
0.00033725666
0.00033582215
0.00033278854
0.00032715828
0.00032769451
0.00034628429
0.00039959105
0.00039810377
0.00060701844
0.00053494806
0.00051907847
0.0005035808
0.00049324473
0.00062979776
0.00070239541
0.00071695658
0.00070665577
0.00073330103
0.00076043177
0.00079446196
0.00080546915
0.00082025303
0.00048287984
0.00053853675
0.00058776064
0.00063412024
0.00067530144
0.00071424296
0.00075887286
0.00081571439
0.00087124028
0.00090285316
0.00087281231
0.00082228522
0.00069229598
0.00071422069
0.00045283015
0.00052669627
0.00064011422
0.00073962244
0.00081374535
0.00085959364
0.00087890071
0.00087310694
0.00085358307
0.00083978005
0.00085194343
0.00089578824
0.00093705489
0.00094680227
0.00088613208
0.00072400153
0.00060555287
0.00050147665
0.00062033997
0.0007874779
0.00093442526
0.0010369279
0.0010998165
0.0011324719
0.0011421459
0.001127641
0.0010881225
0.0010278883
0.00096414689
0.00092612389
0.0009342305
0.00097220831
0.0010008703
0.00091334696
0.0007473172
0.00057043251
0.00055157629
0.0007038025
0.00091573283
0.0010837313
0.0011822379
0.0012284057
0.0012460034
0.0012508825
0.0012519286
0.001251846
0.0012425533
0.0012119823
0.0011519233
0.0010714183
0.0010046347
0.00098448482
0.0010220395
0.0010312939
0.00093232871
0.0007246323
0.00052600994
0.00062982095
0.00074424382
0.0009643636
0.0011261389
0.0011937203
0.0011997919
0.0011816428
0.0011573993
0.0011324983
0.0011116752
0.001102433
0.0011168041
0.0011480598
0.0011728556
0.0011621341
0.0011101913
0.0010488711
0.0010344525
0.0010678474
0.0010574668
0.00091361674
0.00067053122
0.00048180956
0.0007060578
0.0009392315
0.0011033581
0.0011442711
0.0011171773
0.0010793492
0.001044617
0.0010021456
0.00094689056
0.00088892408
0.0008452857
0.00083461248
0.0008706404
0.00095066218
0.0010426418
0.0010978552
0.001093405
0.0010661576
0.0010789241
0.0011111777
0.0010565401
0.000840932
0.00058209542
0.00053033889
0.00064329724
0.00090987261
0.0010660835
0.0010833147
0.0010331953
0.00099689529
0.00098110417
0.00094554105
0.00086573693
0.00075598258
0.00064775357
0.00056706259
0.00052857505
0.00054194911
0.00061773421
0.00075389283
0.00091045938
0.0010226822
0.0010633334
0.001082875
0.0011267981
0.0011370083
0.0009915459
0.00070876858
0.00049897695
0.00082245247
0.00098698321
0.0010187365
0.0009649068
0.00093846057
0.00095706121
0.00094984163
0.00085945589
0.00070123266
0.00053048822
0.00039136064
0.00030016967
0.00025720076
0.00026252005
0.00031993762
0.00044455747
0.00063500337
0.00083879019
0.00098261681
0.0010587149
0.0011227316
0.0011741912
0.0010966296
0.00083412662
0.00055500208
0.00053305957
0.00083242784
0.00088348357
0.00096994396
0.00092318097
0.00088861096
0.00093300696
0.00097355025
0.00090577925
0.00072139378
0.00049779674
0.00031139003
0.00018842551
0.00011948925
9.1064447e-05
9.3685584e-05
0.0001283739
0.00021643986
0.000384438
0.00061802536
0.00084165913
0.00099484175
0.0011005006
0.0011867665
0.0011626291
0.00093939754
0.00060991087
0.00051831336
0.00080135259
0.00091337892
0.00090171817
0.00084162953
0.00088279668
0.00097484292
0.00097551585
0.00081613581
0.00056056418
0.00032506011
0.0001696554
8.4801624e-05
4.8761301e-05
4.076064e-05
3.990862e-05
4.7953805e-05
8.9051345e-05
0.00021115627
0.00042887399
0.00068874991
0.00090653279
0.0010634182
0.001185812
0.0012016169
0.0010156239
0.00066037733
0.00049564362
0.00079963379
0.00087120996
0.00081587091
0.00081159096
0.0009254423
0.001012823
0.0009458387
0.00071485965
0.00043435496
0.00022291991
0.00010427256
4.8424329e-05
3.5681253e-05
3.437349e-05
3.2576457e-05
3.2292863e-05
3.9802914e-05
0.00011112571
0.0002987535
0.00056361253
0.00082076394
0.0010231736
0.0011803629
0.001224005
0.001063258
0.00071215871
0.00048865113
0.00055621904
0.00078885369
0.00080151803
0.000758513
0.00082521905
0.00097503294
0.0010275337
0.00090735376
0.00064375296
0.00036662185
0.0001790886
7.8011035e-05
3.6733738e-05
3.5483551e-05
4.0490437e-05
3.5735056e-05
3.0798124e-05
3.2882618e-05
6.8074671e-05
0.00022608125
0.00048466617
0.00075962966
0.00099417561
0.0011790637
0.0012358347
0.0010828949
0.00073590955
0.00048924118
0.00056162305
0.00078898276
0.00073025902
0.00073250709
0.00085372662
0.0010091995
0.0010279317
0.00088667222
0.00062102252
0.00035230484
0.00017184252
7.1641038e-05
3.3834149e-05
3.5234674e-05
8.3700063e-05
3.0141747e-05
2.9221791e-05
3.2054904e-05
6.0640644e-05
0.0002066284
0.00045725256
0.00073560502
0.00099071229
0.0011894833
0.0012378935
0.001070256
0.00071941007
0.00045370722
0.00057385473
0.00071525015
0.00067134892
0.00072397605
0.00087558528
0.0010235048
0.0010274116
0.00089478854
0.00064642298
0.00038370684
0.0001959509
8.6017676e-05
3.4853356e-05
3.1125468e-05
4.7335866e-05
2.9304374e-05
2.8436071e-05
3.2003789e-05
7.8932856e-05
0.0002355756
0.00047900218
0.00075531855
0.0010204681
0.0012101056
0.0012248602
0.0010242697
0.00067217675
0.00043937921
0.00058422001
0.00069793484
0.00061794371
0.00071502175
0.00088029725
0.0010211594
0.0010313606
0.00092884876
0.00071314641
0.00045833647
0.00025677339
0.00013173331
5.7401788e-05
2.9489681e-05
2.7307289e-05
2.7431336e-05
2.8100705e-05
5.1292829e-05
0.00013691361
0.00030930964
0.00054798592
0.00082242805
0.0010796938
0.0012291673
0.0011860017
0.00094257547
0.00059616654
0.00042153773
0.00059542624
0.00072831261
0.00057458455
0.00069308317
0.00086449207
0.0010058385
0.0010346004
0.00097570353
0.00080867592
0.00057548354
0.00036199463
0.00021670463
0.0001254373
6.8535164e-05
4.5609229e-05
4.3846913e-05
6.6122366e-05
0.00012669738
0.00024480123
0.0004275986
0.00066602396
0.00093066141
0.0011486239
0.0012259718
0.0011106235
0.00083109083
0.00052120029
0.00040883103
0.00065502941
0.00053226498
0.00065471959
0.00082809899
0.00097545278
0.0010258396
0.0010158329
0.00091457748
0.00072707091
0.00051686765
0.00035214961
0.00024655404
0.00018046632
0.00014550358
0.00014607754
0.00018557849
0.00026835408
0.00040398138
0.00059419729
0.00082608855
0.0010533711
0.001194743
0.0011792797
0.00099327236
0.00069873888
0.0004620973
0.0004091155
0.00049445286
0.00060045293
0.0007696043
0.00092679761
0.00099599046
0.001028768
0.0010015118
0.00088772242
0.00071267266
0.00054230412
0.00042118657
0.0003514529
0.00032026568
0.00032583393
0.00037405651
0.00046913705
0.0006127538
0.00079730012
0.00099423383
0.0011457676
0.0011850499
0.0010768937
0.00084398951
0.00057796807
0.00043526289
0.00044080585
0.00043856057
0.00053477362
0.0006874536
0.00085545688
0.00094054451
0.0010002617
0.0010368186
0.0010128861
0.00091338117
0.00077603968
0.00065264665
0.00057415739
0.00054406857
0.00055741746
0.00061324446
0.00071038959
0.00084273658
0.00099027727
0.0011145317
0.0011647936
0.0011018295
0.00092432953
0.00068123193
0.00048115336
0.00040820619
0.00051301733
0.00044109479
0.0004634054
0.00058621907
0.00075656528
0.00085835191
0.00092910172
0.001001395
0.0010543019
0.0010493576
0.00098919282
0.0009066045
0.00083843262
0.00080723963
0.0008178156
0.00086603108
0.00094236043
0.0010324894
0.0011105026
0.0011416939
0.0010935646
0.0009541498
0.00074591315
0.00053456682
0.00042437716
0.00040827492
0.00042647474
0.00049078753
0.00063254079
0.00074942545
0.0008250281
0.00090294243
0.00099397925
0.0010639853
0.0010887135
0.0010768737
0.0010502593
0.0010316686
0.0010331453
0.0010554786
0.0010896299
0.0011176854
0.0011166053
0.0010631784
0.00094295628
0.00076242473
0.00056130989
0.00042748409
0.00039211543
0.00041216627
0.00051176625
0.00061928093
0.00069957116
0.00076858942
0.00085498382
0.0009567482
0.0010369523
0.0010865902
0.0011084878
0.0011149992
0.001116302
0.0011147325
0.0011052079
0.0010749002
0.0010088402
0.00089545719
0.00073515686
0.00055599762
0.00042947102
0.00038599228
0.00042661468
0.00042870365
0.00050433133
0.00057006338
0.00062893056
0.00068373673
0.00077237403
0.00086553204
0.00094465143
0.00099945507
0.0010263244
0.0010302228
0.0010130499
0.00097192821
0.00090152283
0.00079699895
0.00066200557
0.00051869582
0.00041908658
0.00038313215
0.00042304193
0.00044533667
0.00048862822
0.00051859033
0.00053809728
0.00057876222
0.00064423863
0.00071142185
0.00077443288
0.00081053315
0.00081744212
0.00079316458
0.00073945212
0.0006623193
0.00057007112
0.00048073389
0.00041293442
0.00035812443
0.00041985634
0.00051414789
0.00045866709
0.00048712367
0.00046642234
0.00047496814
0.00049391873
0.00052499196
0.00054393394
0.00054496238
0.00052511624
0.00048789784
0.00044624786
0.00040768739
0.00036937046
0.00037070121
0.00054414751
0.00050222182
0.0004381563
0.0003980609
0.00039624049
0.00040325697
0.00040571151
0.0003999196
0.00039422398
0.0004009657
0.00043753712
0.00042889186
0.00068217453
0.00059056949
0.00055636697
0.00052943195
0.00050713646
0.00094417873
0.0010135053
0.0010156019
0.00099305012
0.0009985382
0.00099677661
0.00098540832
0.00090961645
0.00089919988
0.00068773019
0.00078051058
0.00084253359
0.0009122017
0.00098339765
0.0010623016
0.0011473094
0.001230398
0.0012757322
0.0012625937
0.0011569986
0.0010227515
0.00075995196
0.0007782802
0.00053761771
0.0006748046
0.0007954459
0.00089229744
0.00096921148
0.0010236056
0.0010557003
0.0010713491
0.0010905107
0.0011344081
0.0012094299
0.0012960041
0.0013374044
0.0013019513
0.0011525185
0.00085647829
0.00071748981
0.00053143309
0.00069153428
0.00088131935
0.0010558526
0.0011829639
0.001261441
0.0012997381
0.001307217
0.0012871012
0.0012473695
0.0012035401
0.0011827291
0.0012111912
0.0012872664
0.0013613154
0.0013704932
0.0011778186
0.00091190637
0.00063237802
0.00058571739
0.0007886076
0.0010686295
0.0012951973
0.0014325154
0.001494273
0.0015093266
0.0015010332
0.0014845952
0.0014631745
0.0014314402
0.0013839444
0.0013211021
0.0012646418
0.0012544108
0.0013073491
0.0013974608
0.0013835999
0.0011995945
0.00086884657
0.00057485112
0.00066528761
0.00086486942
0.001181578
0.0014196998
0.0015257413
0.0015333241
0.0014930083
0.0014386034
0.0013857918
0.0013434022
0.0013193781
0.001321749
0.0013402393
0.0013516389
0.0013352552
0.0013008705
0.0012914986
0.0013524946
0.0014319739
0.0013937176
0.0011499575
0.00077632442
0.00051655662
0.00082463764
0.0011862821
0.0014449923
0.0015198972
0.0014728376
0.0013869542
0.0013022561
0.0012210514
0.0011402241
0.0010672565
0.0010158746
0.0010045405
0.0010449032
0.0011288294
0.0012203498
0.0012768445
0.0012930109
0.0013219423
0.0014069797
0.0014670751
0.0013574291
0.0010185714
0.00063577737
0.00056283074
0.00070527106
0.0011523165
0.001423897
0.0014768656
0.0013881159
0.0012811176
0.0012020437
0.00112503
0.0010225424
0.00090040163
0.0007844698
0.00069939117
0.00066048337
0.0006797633
0.00076896456
0.00092101145
0.0010885055
0.0012110055
0.0012823206
0.0013657119
0.0014678124
0.0014679862
0.0012255461
0.00080561806
0.00052348115
0.0010007213
0.001324697
0.0014197865
0.0013239683
0.0012090682
0.0011543456
0.0011071281
0.0010008247
0.00083544238
0.00065692025
0.00050762327
0.00040727993
0.00035956795
0.00036609398
0.0004340979
0.00058081028
0.00079774636
0.0010217612
0.0011866293
0.0013090331
0.0014366004
0.0015092121
0.0013633655
0.00096662393
0.00058299157
0.00055011526
0.00088516536
0.0011464315
0.0013660998
0.0013058879
0.0011697043
0.0011250652
0.0011227878
0.0010434258
0.00085668424
0.00062660522
0.00042491735
0.00028190948
0.00019632768
0.0001575239
0.00015934078
0.00020397566
0.00031402575
0.00051713534
0.00078681491
0.0010376967
0.0012270166
0.0013900319
0.0015124012
0.0014427436
0.001095305
0.00064481139
0.00053334291
0.00088220794
0.0012540529
0.0013159719
0.0011633656
0.0010890034
0.0011257163
0.0011132405
0.0009545817
0.00069728252
0.00044874769
0.0002656796
0.0001500497
8.7864955e-05
6.4175847e-05
6.365554e-05
8.4720445e-05
0.00015204066
0.00031132246
0.00057637893
0.00087599205
0.001129169
0.0013362488
0.0014981245
0.0014819465
0.0011826191
0.00070231857
0.00050425355
0.00092133948
0.0012635111
0.0012044191
0.0010601248
0.0010873798
0.0011551671
0.0010865538
0.00085824621
0.00057399328
0.00034059664
0.00017936826
8.2633129e-05
4.5690604e-05
3.9373019e-05
3.8241228e-05
4.1647806e-05
7.2752445e-05
0.0001861661
0.00042581991
0.00074165773
0.0010385958
0.0012863894
0.001479955
0.0014960114
0.001230555
0.00075930842
0.00049266474
0.00055883613
0.0010008342
0.0012147832
0.0010937153
0.0010172986
0.001124483