/*--------------------------------*- C++ -*----------------------------------*\
| =========                 |                                                 |
| \\      /  F ield         | OpenFOAM: The Open Source CFD Toolbox           |
|  \\    /   O peration     | Version:  2406                                  |
|   \\  /    A nd           | Website:  www.openfoam.com                      |
|    \\/     M anipulation  |                                                 |
\*---------------------------------------------------------------------------*/
FoamFile
{
    version     2.0;
    format      ascii;
    arch        "LSB;label=32;scalar=64";
    class       volScalarField;
    location    "900";
    object      nut;
}
// * * * * * * * * * * * * * * * * * * * * * * * * * * * * * * * * * * * * * //

dimensions      [0 2 -1 0 0 0 0];

internalField   nonuniform List<scalar> 
150387
(
9.689265e-06
1.0899995e-05
1.1670977e-05
1.2432406e-05
1.3290874e-05
1.1829836e-05
9.0200359e-06
7.7545559e-06
3.879372e-06
9.5996675e-06
1.1145965e-05
1.2549891e-05
1.3915071e-05
1.4710437e-05
1.4964316e-05
1.5155248e-05
1.5621509e-05
1.5787569e-05
1.5787582e-05
1.4118466e-05
5.9021834e-06
8.733574e-06
1.0708181e-05
1.4824227e-05
1.9447326e-05
2.2350049e-05
2.3283885e-05
2.29315e-05
2.2001666e-05
2.0435601e-05
1.8425634e-05
1.7820664e-05
1.8219323e-05
1.8436424e-05
1.7177956e-05
1.3432661e-05
5.8214304e-06
3.6908762e-06
9.9392164e-06
1.4607165e-05
2.1677465e-05
2.6678287e-05
2.9087822e-05
2.9655163e-05
2.8813805e-05
2.7515759e-05
2.62038e-05
2.4639192e-05
2.2889657e-05
2.0623888e-05
1.9282767e-05
1.9887052e-05
2.0648341e-05
1.9738961e-05
1.5140278e-05
6.5136352e-06
2.921576e-06
9.8590165e-06
1.8354614e-05
2.6846901e-05
3.1278706e-05
3.2804626e-05
3.2791558e-05
3.1669472e-05
2.9820361e-05
2.7995563e-05
2.6616162e-05
2.53642e-05
2.3928794e-05
2.2577384e-05
2.0947006e-05
2.0045542e-05
2.1297085e-05
2.2617107e-05
2.1530619e-05
1.3840184e-05
8.2900507e-06
1.1109046e-05
2.0467384e-05
2.8605397e-05
3.1762006e-05
3.1843129e-05
3.0462981e-05
2.8223244e-05
2.5752525e-05
2.3554718e-05
2.1952627e-05
2.1324697e-05
2.1377471e-05
2.1284691e-05
2.1477994e-05
2.1108258e-05
2.0273721e-05
2.0856408e-05
2.2883326e-05
2.4871746e-05
2.2526771e-05
1.2541587e-05
6.5980149e-06
1.0243287e-05
1.9441125e-05
2.7849631e-05
2.996469e-05
2.864506e-05
2.6665309e-05
2.424121e-05
2.1349917e-05
1.8651081e-05
1.6485755e-05
1.4963107e-05
1.434657e-05
1.4666057e-05
1.5755083e-05
1.6884755e-05
1.7911808e-05
1.9480968e-05
1.9988392e-05
2.2172067e-05
2.5047603e-05
2.6769259e-05
2.023594e-05
1.0262827e-05
5.5485022e-06
3.7833303e-06
1.6657722e-05
2.525499e-05
2.7093174e-05
2.5748971e-05
2.4440323e-05
2.2252514e-05
1.9230775e-05
1.6064816e-05
1.3466285e-05
1.1740702e-05
1.0742986e-05
1.0186628e-05
1.0100926e-05
1.0554315e-05
1.1535545e-05
1.3160877e-05
1.5203599e-05
1.769113e-05
2.0635808e-05
2.4234573e-05
2.7565365e-05
2.654678e-05
1.523963e-05
9.4846478e-06
1.4202529e-05
2.1705192e-05
2.4065312e-05
2.3738864e-05
2.2988786e-05
2.1432907e-05
1.9188126e-05
1.5557489e-05
1.239162e-05
1.0690268e-05
1.007796e-05
9.8135129e-06
9.5313556e-06
9.4251473e-06
9.5586317e-06
9.7676972e-06
1.0349736e-05
1.153886e-05
1.3990822e-05
1.766704e-05
2.2503389e-05
2.6944743e-05
2.9069545e-05
2.1872597e-05
1.134335e-05
9.6354797e-06
1.7699867e-05
2.120636e-05
2.2012351e-05
2.1811689e-05
2.130327e-05
2.0576898e-05
1.6739647e-05
1.2592101e-05
1.0462975e-05
9.8202042e-06
8.9412606e-06
7.194518e-06
5.9871152e-06
6.0362604e-06
6.9533466e-06
8.4082161e-06
9.5180099e-06
1.0028143e-05
1.1271831e-05
1.4571197e-05
1.9995737e-05
2.5822017e-05
2.9632159e-05
2.6372181e-05
1.4196852e-05
1.0364097e-05
1.0258673e-05
1.8059143e-05
2.0027573e-05
2.0718931e-05
2.1458418e-05
2.180795e-05
1.9038401e-05
1.4242305e-05
1.0845182e-05
9.7929357e-06
8.3855722e-06
5.23141e-06
3.4717506e-06
3.0602922e-06
3.1661442e-06
3.3703801e-06
4.5833901e-06
7.3344254e-06
9.3929922e-06
1.0059171e-05
1.2272813e-05
1.7565259e-05
2.4502155e-05
2.9550254e-05
2.8656321e-05
1.8361423e-05
1.0603203e-05
1.2125413e-05
1.7399571e-05
1.9165504e-05
2.0690934e-05
2.2554264e-05
2.1715484e-05
1.7438388e-05
1.2494049e-05
1.011403e-05
8.9520293e-06
5.6833661e-06
3.3065072e-06
2.7465571e-06
2.608749e-06
2.6948825e-06
2.6465656e-06
2.74779e-06
4.5194414e-06
8.0030091e-06
9.5185785e-06
1.0928174e-05
1.5710683e-05
2.3326388e-05
2.9307377e-05
2.9722179e-05
2.1984081e-05
1.1562941e-05
8.4915887e-06
1.5928326e-05
1.664155e-05
1.8807905e-05
2.2058678e-05
2.3177778e-05
2.1549632e-05
1.6329703e-05
1.1483551e-05
9.662515e-06
7.7917649e-06
4.4129755e-06
3.0602078e-06
2.4609228e-06
2.401994e-06
2.3675925e-06
2.5070863e-06
2.5158618e-06
3.2043152e-06
6.5189376e-06
9.0561085e-06
1.0210006e-05
1.461856e-05
2.2752126e-05
2.9237222e-05
3.0210009e-05
2.4177869e-05
1.2330752e-05
1.0667069e-05
1.4356405e-05
1.5955852e-05
1.9107782e-05
2.2881212e-05
2.412443e-05
2.1248992e-05
1.5723716e-05
1.1067116e-05
9.3073466e-06
6.994549e-06
3.9797044e-06
2.9974735e-06
2.2192181e-06
2.6114896e-06
2.7169968e-06
2.4527165e-06
2.5286996e-06
2.8719741e-06
5.8102053e-06
8.6679243e-06
9.8478343e-06
1.4325681e-05
2.2771745e-05
2.9247157e-05
3.0224404e-05
2.4824886e-05
1.3160161e-05
9.4322912e-06
1.3353335e-05
1.5204864e-05
1.9467926e-05
2.3508619e-05
2.5077041e-05
2.1201721e-05
1.5854691e-05
1.1081264e-05
9.276785e-06
6.8858261e-06
3.9388476e-06
2.9857952e-06
2.4806329e-06
3.0024707e-06
1.9432353e-06
2.4942297e-06
2.5375434e-06
3.0124208e-06
5.86793e-06
8.4543061e-06
9.8342081e-06
1.4527509e-05
2.2988941e-05
2.9023592e-05
2.9505659e-05
2.4043968e-05
1.366871e-05
9.4863578e-06
1.2377669e-05
1.4504467e-05
1.9327286e-05
2.3966632e-05
2.592516e-05
2.1848598e-05
1.6990749e-05
1.1755505e-05
9.5458293e-06
7.53854e-06
4.5537632e-06
3.2575537e-06
2.8465036e-06
2.6057913e-06
2.5554975e-06
2.5814698e-06
2.6988683e-06
3.8915151e-06
6.6179512e-06
8.5515519e-06
1.0305228e-05
1.5409034e-05
2.342001e-05
2.8404002e-05
2.8475975e-05
2.1942701e-05
1.4045334e-05
4.5443703e-06
9.2601732e-06
1.3560952e-05
1.8691141e-05
2.4271521e-05
2.677696e-05
2.3451579e-05
1.9052889e-05
1.3168057e-05
1.0097281e-05
8.6350864e-06
5.9499222e-06
4.0413081e-06
3.2320067e-06
2.8533793e-06
2.8072448e-06
2.9162598e-06
3.5805332e-06
5.4223002e-06
7.669794e-06
9.0431603e-06
1.137762e-05
1.7218031e-05
2.4028308e-05
2.7972628e-05
2.7176401e-05
1.9129195e-05
1.2513813e-05
7.7438951e-06
7.8714937e-06
1.2438475e-05
1.6959894e-05
2.383972e-05
2.7144361e-05
2.5045876e-05
2.1671998e-05
1.5711439e-05
1.1224407e-05
9.6645175e-06
7.9323892e-06
5.8265866e-06
4.5580496e-06
3.9262904e-06
3.9205534e-06
4.3826649e-06
5.498907e-06
7.1498966e-06
8.6605775e-06
1.0033299e-05
1.3347241e-05
1.9715967e-05
2.5256212e-05
2.7895463e-05
2.5063411e-05
1.6886422e-05
1.2448166e-05
1.0728555e-05
1.4547392e-05
2.2211053e-05
2.6536476e-05
2.5980541e-05
2.4236477e-05
1.9366125e-05
1.3753395e-05
1.0925877e-05
9.5614719e-06
8.1361902e-06
6.8706547e-06
6.2857934e-06
6.2949945e-06
6.7283839e-06
7.6092166e-06
8.6590157e-06
9.7365667e-06
1.1771557e-05
1.6591875e-05
2.2436592e-05
2.6766663e-05
2.755288e-05
2.1943623e-05
1.5175476e-05
7.897786e-06
9.773991e-06
1.2194614e-05
1.8977134e-05
2.5081938e-05
2.579415e-05
2.5975489e-05
2.3300207e-05
1.8098964e-05
1.400173e-05
1.1450948e-05
9.9569575e-06
8.8483294e-06
8.3593066e-06
8.3709481e-06
8.6397146e-06
9.1702654e-06
1.0038748e-05
1.169453e-05
1.5268214e-05
2.091848e-05
2.5932374e-05
2.855274e-05
2.5615788e-05
1.8002082e-05
1.1491353e-05
7.9551921e-06
1.003455e-05
1.4669245e-05
2.2205789e-05
2.4304584e-05
2.5914123e-05
2.6257983e-05
2.2793173e-05
1.9095947e-05
1.6259582e-05
1.380003e-05
1.1915067e-05
1.0727102e-05
1.0329857e-05
1.0622307e-05
1.1495635e-05
1.3238615e-05
1.6702851e-05
2.1969443e-05
2.6834187e-05
2.944207e-05
2.7419633e-05
2.06529e-05
1.4278219e-05
8.3259341e-06
7.5962347e-06
1.1746993e-05
1.7141053e-05
2.1509283e-05
2.3657632e-05
2.6462553e-05
2.6056168e-05
2.3691795e-05
2.177594e-05
1.9937038e-05
1.8606004e-05
1.7999987e-05
1.7900268e-05
1.8159172e-05
1.9614633e-05
2.2352227e-05
2.5818111e-05
2.8854503e-05
2.9895862e-05
2.7467862e-05
2.1342086e-05
1.4755111e-05
1.0738552e-05
4.4444594e-06
9.1780228e-06
1.1829381e-05
1.7985674e-05
2.0433084e-05
2.325657e-05
2.5905249e-05
2.5670466e-05
2.4971124e-05
2.4905473e-05
2.5096159e-05
2.5499842e-05
2.6129347e-05
2.6788558e-05
2.772072e-05
2.8970215e-05
2.961743e-05
2.8756338e-05
2.5694026e-05
2.024787e-05
1.4230621e-05
8.7255729e-06
4.6473356e-06
7.7432495e-06
1.401892e-05
1.7313405e-05
1.9354415e-05
2.1786496e-05
2.3817779e-05
2.4857075e-05
2.566785e-05
2.6594074e-05
2.7701692e-05
2.8590042e-05
2.8896447e-05
2.8655515e-05
2.7876413e-05
2.5957152e-05
2.2308471e-05
1.6947562e-05
1.2789344e-05
9.6712052e-06
6.2383607e-06
6.2918148e-06
1.2222307e-05
1.6264041e-05
1.8086557e-05
1.9010567e-05
2.0289411e-05
2.1832507e-05
2.3189487e-05
2.4341344e-05
2.5093843e-05
2.4766368e-05
2.3338861e-05
2.0823106e-05
1.7149427e-05
1.3874964e-05
1.1426589e-05
8.121879e-06
5.3634286e-06
4.1270053e-06
9.9839723e-06
1.5146581e-05
1.6061213e-05
1.6516136e-05
1.6673693e-05
1.7011549e-05
1.7619769e-05
1.7733434e-05
1.6697321e-05
1.5093579e-05
1.3642874e-05
1.2417009e-05
1.0843173e-05
7.9330291e-06
4.3888458e-06
3.9643294e-06
1.0278354e-05
1.3191754e-05
1.3764936e-05
1.4252479e-05
1.3600276e-05
1.3002283e-05
1.2423614e-05
1.1392414e-05
1.0803068e-05
8.7875453e-06
8.0332438e-06
7.8818636e-06
9.7382258e-06
9.5728887e-06
9.6692421e-06
1.1698599e-05
7.4738004e-06
7.2574418e-06
1.7636804e-05
2.552063e-05
2.5037582e-05
2.57241e-05
2.5804391e-05
2.4315722e-05
2.6456617e-05
1.6352783e-05
1.5270866e-05
2.7583198e-05
3.3867578e-05
3.9178054e-05
4.3002865e-05
4.4517606e-05
4.4624858e-05
4.4626511e-05
4.5821437e-05
4.5319961e-05
3.5629371e-05
3.3045275e-05
1.0644137e-05
8.5496381e-06
7.9086884e-06
2.8506814e-05
4.177146e-05
5.445652e-05
6.4715719e-05
7.1513814e-05
7.4778811e-05
7.451538e-05
7.1646652e-05
6.6397505e-05
6.131051e-05
5.856987e-05
5.9307018e-05
5.6382998e-05
4.7777513e-05
2.0871619e-05
1.9206244e-05
1.0467696e-05
3.0662152e-05
5.0769276e-05
7.0456579e-05
8.521992e-05
9.4594277e-05
9.9528118e-05
0.0001011458
9.9975351e-05
9.6725883e-05
9.1355288e-05
8.4136892e-05
7.6490794e-05
7.0511794e-05
6.7393254e-05
6.7146732e-05
5.3991344e-05
3.3361641e-05
1.4186046e-05
1.0825473e-05
3.4559375e-05
6.0290407e-05
8.2173395e-05
9.6823812e-05
0.00010434207
0.00010675254
0.00010638706
0.00010497721
0.00010354548
0.0001019805
9.9722535e-05
9.5881591e-05
9.1180822e-05
8.5524429e-05
7.8926931e-05
7.5579578e-05
7.3606307e-05
5.9873973e-05
3.4735377e-05
1.4504006e-05
8.8676501e-06
3.4012895e-05
6.1673604e-05
8.332366e-05
9.5285393e-05
9.9267015e-05
9.7445162e-05
9.3009142e-05
8.7945203e-05
8.3608217e-05
8.0828036e-05
8.0827801e-05
8.3395667e-05
8.6435456e-05
8.8092081e-05
8.8031095e-05
8.6742328e-05
8.4074003e-05
8.2843678e-05
7.8641941e-05
5.9751262e-05
3.2773239e-05
1.3307633e-05
2.2088022e-05
5.6207016e-05
7.9003621e-05
8.856924e-05
9.0445553e-05
8.780163e-05
8.1606023e-05
7.3285468e-05
6.4585917e-05
5.6896909e-05
5.1223339e-05
4.8863105e-05
5.0780141e-05
5.6957088e-05
6.5699072e-05
7.4326263e-05
8.0556453e-05
8.4560378e-05
8.7890055e-05
8.9102773e-05
8.02922e-05
5.3703371e-05
3.1973881e-05
1.0564386e-05
1.7780104e-05
4.9813364e-05
7.1451467e-05
7.9296336e-05
8.0966672e-05
8.1404638e-05
7.7162477e-05
6.7081029e-05
5.4864212e-05
4.3081005e-05
3.4182313e-05
2.8635287e-05
2.6155826e-05
2.6755137e-05
3.0982325e-05
3.9436772e-05
5.124092e-05
6.4632355e-05
7.5230604e-05
8.464875e-05
9.291093e-05
9.3752431e-05
7.3813382e-05
4.6850088e-05
1.9936642e-05
3.4204984e-05
5.9714241e-05
6.9648596e-05
7.2245236e-05
7.7542892e-05
7.8408612e-05
6.8570812e-05
5.3172252e-05
3.7720339e-05
2.6154461e-05
1.8519793e-05
1.4013103e-05
1.2269165e-05
1.2752399e-05
1.5455451e-05
2.1365391e-05
3.13851e-05
4.5279588e-05
6.1217925e-05
7.5655576e-05
8.9804148e-05
9.9651062e-05
9.0016739e-05
6.2486489e-05
3.3510194e-05
1.4185383e-05
9.6226738e-06
3.7869216e-05
6.1353048e-05
6.4844554e-05
7.2383598e-05
8.0891148e-05
7.5142822e-05
5.8291538e-05
3.9003582e-05
2.4168258e-05
1.4461575e-05
8.5287874e-06
5.9630643e-06
5.5005462e-06
5.5800431e-06
6.5951119e-06
1.0336383e-05
1.8066428e-05
3.0173843e-05
4.6190526e-05
6.4678491e-05
8.2933306e-05
9.9537941e-05
0.00010011174
7.7106346e-05
4.2638604e-05
2.4948813e-05
2.1172441e-05
4.7193879e-05
5.6825973e-05
6.3565658e-05
7.8974689e-05
8.2747678e-05
6.9577707e-05
4.7209826e-05
2.7869997e-05
1.5083996e-05
7.8357848e-06
6.1351097e-06
8.1672619e-06
7.8651989e-06
7.6947206e-06
6.5919231e-06
5.3285933e-06
9.6243031e-06
1.9898464e-05
3.469067e-05
5.4032561e-05
7.6116541e-05
9.6876224e-05
0.00010511413
8.8255535e-05
5.2100869e-05
2.7169433e-05
1.171834e-05
4.6014821e-05
5.3936472e-05
6.8734944e-05
8.5423337e-05
8.2622212e-05
6.3154295e-05
3.846114e-05
2.076674e-05
1.0148328e-05
7.1458285e-06
1.0116296e-05
8.0212761e-06
6.9209408e-06
7.1165824e-06
6.8476033e-06
8.6183609e-06
6.0143994e-06
1.3706881e-05
2.7091604e-05
4.5771503e-05
7.0346227e-05
9.480571e-05
0.00010753469
9.5565353e-05
6.0516323e-05
3.0511931e-05
7.6298617e-06
2.5102631e-05
4.2213162e-05
5.4967296e-05
7.5757946e-05
8.9543224e-05
8.1236829e-05
5.7985328e-05
3.3248318e-05
1.7386922e-05
8.5235898e-06
9.10717e-06
8.3362996e-06
7.2694831e-06
3.6916484e-06
3.7018527e-06
5.9969977e-06
7.3294077e-06
5.6251183e-06
1.0709335e-05
2.2949259e-05
4.0876851e-05
6.6527786e-05
9.4086782e-05
0.00010900331
9.9488292e-05
6.5861759e-05
3.4795731e-05
1.5811964e-05
2.9757734e-05
4.0109594e-05
5.7833533e-05
8.0559269e-05
9.2312016e-05
8.0369247e-05
5.624713e-05
3.2013107e-05
1.6773755e-05
8.4289258e-06
9.9984277e-06
8.1318157e-06
5.8901423e-06
2.3172644e-06
2.7882436e-06
5.8892313e-06
7.2320819e-06
5.7461071e-06
1.0194802e-05
2.177513e-05
3.9320885e-05
6.5983939e-05
9.5553932e-05
0.00011008999
0.00010045459
6.7016868e-05
3.2450224e-05
1.7081566e-05
2.5872105e-05
3.814635e-05
5.9748225e-05
8.2972598e-05
9.4084379e-05
8.1147738e-05
5.840284e-05
3.4369357e-05
1.8302915e-05
9.3617748e-06
1.058553e-05
8.5655904e-06
6.2849258e-06
4.3183299e-06
4.8167404e-06
6.2605322e-06
7.1779909e-06
6.0033774e-06
1.1689394e-05
2.3192327e-05
4.1394883e-05
6.9556337e-05
9.9088026e-05
0.00011062223
9.8590052e-05
6.3673113e-05
3.071654e-05
1.6984031e-05
2.5286719e-05
3.5667307e-05
5.9099822e-05
8.295716e-05
9.494921e-05
8.3979891e-05
6.4008403e-05
4.0171403e-05
2.2434716e-05
1.1559049e-05
9.4873651e-06
1.1049234e-05
7.1462643e-06
6.6703707e-06
6.6691262e-06
6.8016826e-06
6.5179759e-06
7.8197955e-06
1.511039e-05
2.7439437e-05
4.7695447e-05
7.7149082e-05
0.0001035816
0.00010973261
9.3249747e-05
5.634522e-05
3.0733276e-05
1.3205957e-05
2.3122062e-05
3.2376407e-05
5.5353172e-05
8.0155035e-05
9.4792818e-05
8.8147534e-05
7.1945799e-05
4.9593793e-05
2.9994562e-05
1.6690826e-05
1.0105469e-05
8.6507302e-06
7.8060589e-06
7.2978563e-06
7.3809454e-06
7.4898513e-06
7.5508036e-06
1.2317222e-05
2.1068889e-05
3.5533662e-05
5.8447154e-05
8.7216069e-05
0.00010695773
0.00010635423
8.5025233e-05
4.7930624e-05
2.7255643e-05
1.4337752e-05
2.8384164e-05
4.8968641e-05
7.37617e-05
9.2618056e-05
9.1971102e-05
8.1079793e-05
6.2738149e-05
4.1856734e-05
2.6415234e-05
1.6881682e-05
1.2480776e-05
1.0431623e-05
9.0434114e-06
8.8214024e-06
9.9857556e-06
1.3221585e-05
2.0112781e-05
3.1039892e-05
4.8517789e-05
7.2868295e-05
9.7273736e-05
0.00010783567
9.9687101e-05
7.1202765e-05
3.5424194e-05
2.2929063e-05
2.4235143e-05
4.0737057e-05
6.3306553e-05
8.6607264e-05
9.3546038e-05
8.9182946e-05
7.6989464e-05
5.8571368e-05
4.0491101e-05
2.7729086e-05
2.0461055e-05
1.7397025e-05
1.6244171e-05
1.6406092e-05
1.8622119e-05
2.3625665e-05
3.2367263e-05
4.5958445e-05
6.532893e-05
8.7872768e-05
0.0001033195
0.00010416662
8.6531909e-05
5.312501e-05
2.7584695e-05
1.8714013e-05
2.0678205e-05
3.2155996e-05
5.0341124e-05
7.5353627e-05
8.9946822e-05
9.3816603e-05
8.8587644e-05
7.7081109e-05
6.0935584e-05
4.5598945e-05
3.4972713e-05
2.9236548e-05
2.7507749e-05
2.8483396e-05
3.2064321e-05
3.8902768e-05
4.9754897e-05
6.513096e-05
8.3989594e-05
9.8636147e-05
0.00010324009
9.3081867e-05
6.7161869e-05
3.8431904e-05
2.1046599e-05
7.1725963e-06
6.6769158e-06
2.3760601e-05
3.5408323e-05
5.8930688e-05
7.9027536e-05
9.1802083e-05
9.5211351e-05
9.1593115e-05
8.2698195e-05
7.0223948e-05
5.8437245e-05
5.0189464e-05
4.6573367e-05
4.7474971e-05
5.2193039e-05
6.0331624e-05
7.1965666e-05
8.5649847e-05
9.6925304e-05
0.00010110819
9.5203786e-05
7.5187481e-05
4.6425933e-05
1.6793136e-05
9.05881e-06
1.6524822e-05
2.2192726e-05
4.0280703e-05
6.0349776e-05
7.9318485e-05
9.1523183e-05
9.7606095e-05
9.7040452e-05
9.2313443e-05
8.5646162e-05
7.9061807e-05
7.4771626e-05
7.4655823e-05
7.818297e-05
8.4378326e-05
9.1700806e-05
9.8236311e-05
9.995497e-05
9.4071024e-05
7.6843306e-05
4.9609898e-05
2.5899157e-05
1.95118e-05
1.1207444e-05
2.3268048e-05
3.9976172e-05
5.8132102e-05
7.5029541e-05
8.9212123e-05
9.7494019e-05
0.00010086161
0.00010109451
9.9483886e-05
9.778623e-05
9.7221751e-05
9.8102682e-05
9.9880764e-05
0.00010079953
9.8601941e-05
8.9769435e-05
7.2153326e-05
4.7528413e-05
2.5716488e-05
1.8061829e-05
8.9749288e-06
1.1663042e-05
2.229724e-05
3.5651252e-05
5.0791531e-05
6.6137259e-05
8.1183776e-05
9.0614325e-05
9.699236e-05
0.00010051987
0.00010170587
0.00010143398
9.9824515e-05
9.6331261e-05
8.9524839e-05
7.7452221e-05
5.916221e-05
3.9436151e-05
2.3251464e-05
1.6731138e-05
9.5270184e-06
1.0169538e-05
1.478505e-05
3.1907393e-05
4.041842e-05
5.2435032e-05
6.4584992e-05
7.3337398e-05
7.9540627e-05
8.2404999e-05
8.1966932e-05
7.8154971e-05
7.0648176e-05
5.9423235e-05
4.5986431e-05
3.3338635e-05
2.390756e-05
1.4240308e-05
8.787375e-06
1.0483449e-05
1.7827559e-05
2.4248071e-05
2.7101483e-05
3.7277322e-05
4.2428769e-05
4.6646352e-05
4.8232891e-05
4.7231486e-05
4.3202873e-05
3.6366313e-05
2.9553883e-05
2.4075397e-05
1.8277606e-05
1.2455429e-05
1.3611585e-05
9.0312799e-06
2.1084451e-05
2.3822341e-05
2.8655377e-05
2.8038241e-05
2.6700777e-05
2.4593331e-05
2.2455454e-05
2.1542718e-05
1.7919108e-05
6.4060872e-06
7.9630482e-06
1.559254e-05
1.6427352e-05
1.5941817e-05
1.1963572e-05
8.5052515e-06
2.0113035e-05
3.0426527e-05
3.2106979e-05
3.3602299e-05
3.3809318e-05
3.1994194e-05
2.6640788e-05
1.7710328e-05
1.7184839e-05
2.8967817e-05
3.5912938e-05
4.1887807e-05
4.7226146e-05
5.1258985e-05
5.4978411e-05
5.9321648e-05
6.3215695e-05
6.2924474e-05
4.9962211e-05
4.3457734e-05
1.3655342e-05
9.8195625e-06
7.8911703e-06
2.9265514e-05
4.4540866e-05
5.8564836e-05
6.9733127e-05
7.7465673e-05
8.1702277e-05
8.2242599e-05
8.0057192e-05
7.7085201e-05
7.6289877e-05
7.9286372e-05
8.1115544e-05
7.7622861e-05
6.4282713e-05
2.6490961e-05
1.9907156e-05
1.0733948e-05
3.3257436e-05
5.9684963e-05
8.4259968e-05
0.00010238815
0.00011458953
0.0001220192
0.00012557702
0.00012520454
0.00012097958
0.00011333956
0.00010403574
9.676629e-05
9.58227e-05
9.6155254e-05
9.8431359e-05
7.1085799e-05
4.0584981e-05
1.4982466e-05
1.1252113e-05
3.8874519e-05
7.5784841e-05
0.00010682894
0.0001262448
0.00013715285
0.0001426905
0.00014486632
0.00014522754
0.0001449754
0.0001435601
0.00013995022
0.0001330064
0.00012302444
0.00011414577
0.000108631
0.00011139003
0.00010839732
8.3969526e-05
4.2306027e-05
1.4411674e-05
9.2941266e-06
3.9432891e-05
8.0343445e-05
0.00011326027
0.00013008137
0.00013693747
0.00013837827
0.00013541897
0.00013004883
0.00012441331
0.00012082509
0.00012141279
0.00012506857
0.00012982468
0.00013133986
0.00012798228
0.0001218924
0.00011923333
0.00012276591
0.00011639459
8.4274168e-05
3.8693816e-05
1.2662788e-05
2.672924e-05
7.0365898e-05
0.0001085584
0.00012421614
0.00012793797
0.00012760198
0.00012186729
0.00011208018
0.00010066232
9.0404876e-05
8.4032637e-05
8.2222183e-05
8.6252514e-05
9.6318691e-05
0.00010912891
0.0001193949
0.00012402226
0.00012443878
0.00012784327
0.00013075196
0.00011721086
7.3158805e-05
3.5916711e-05
1.1400524e-05
1.9786496e-05
6.4597047e-05
0.0001010327
0.00011387464
0.00011619664
0.00011771373
0.00011449686
0.00010454309
8.9025311e-05
7.3382995e-05
6.042113e-05
5.166534e-05
4.7577384e-05
4.8854896e-05
5.6779505e-05
7.1898456e-05
9.1226697e-05
0.00010798842
0.00011937368
0.0001276435
0.0001355014
0.00013470427
0.00010464209
5.7985679e-05
2.2498273e-05
4.3739695e-05
8.0420597e-05
9.8756297e-05
0.00010362934
0.00010998564
0.00011400742
0.00010744184
8.8585338e-05
6.7189489e-05
4.8658993e-05
3.5553717e-05
2.7669509e-05
2.4246145e-05
2.4656217e-05
2.9411095e-05
4.0759731e-05
5.9875877e-05
8.3165964e-05
0.00010373659
0.0001202941
0.00013459599
0.00014242022
0.00012568951
8.0780753e-05
3.7670645e-05
1.5375083e-05
9.8484659e-06
5.1350208e-05
8.3487924e-05
9.2381287e-05
0.00010042244
0.00011349599
0.00011492422
9.6153625e-05
6.995931e-05
4.6191947e-05
2.9339787e-05
1.9704436e-05
1.4641146e-05
1.2869836e-05
1.2350348e-05
1.4292548e-05
2.0959537e-05
3.5803229e-05
5.8907658e-05
8.4854495e-05
0.0001080803
0.00012914098
0.00014472421
0.00013827471
9.9891487e-05
4.8928552e-05
2.6925895e-05
2.1622195e-05
6.4322817e-05
7.9187698e-05
8.6247387e-05
0.0001048459
0.00012041608
0.0001103678
8.2339646e-05
5.3129379e-05
3.1617362e-05
1.934022e-05
1.460312e-05
1.2258703e-05
1.0205845e-05
9.916588e-06
1.0127116e-05
1.1265342e-05
2.075811e-05
4.0606896e-05
6.753137e-05
9.5363949e-05
0.00012172717
0.00014399669
0.00014533907
0.00011365173
5.9420433e-05
3.0708271e-05
1.3919971e-05
6.3757388e-05
7.1962182e-05
8.7626216e-05
0.00011461874
0.00012417693
0.00010316596
7.0186451e-05
4.229177e-05
2.4742295e-05
1.681816e-05
1.5364387e-05
9.5671553e-06
8.3289e-06
8.0362606e-06
8.3330171e-06
9.9756102e-06
1.2795598e-05
2.9054272e-05
5.484914e-05
8.4862367e-05
0.00011502917
0.00014250521
0.00014921447
0.00012240711
6.9786335e-05
3.4716107e-05
7.8816178e-06
3.2778339e-05
5.8296436e-05
6.8581999e-05
9.3680942e-05
0.00012309149
0.00012449072
9.7459623e-05
6.3576737e-05
3.7705704e-05
2.2723252e-05
1.5882419e-05
1.1023028e-05
8.9300908e-06
3.8943937e-06
3.9096811e-06
6.5778386e-06
8.3428136e-06
9.9026152e-06
2.3137929e-05
4.7641452e-05
7.8260901e-05
0.00011128212
0.00014209719
0.00015134211
0.00012649766
7.560169e-05
3.8545831e-05
1.5925978e-05
4.0079878e-05
5.2842983e-05
6.8164895e-05
9.9888898e-05
0.00012857508
0.00012434473
9.5617507e-05
6.2852228e-05
3.7573883e-05
2.2841341e-05
1.5465688e-05
9.5662296e-06
6.6839486e-06
2.3486169e-06
2.6116237e-06
6.4747334e-06
8.2480296e-06
9.4656198e-06
2.2081855e-05
4.5839398e-05
7.6485918e-05
0.00011199617
0.00014383849
0.00015196805
0.00012595567
7.5347714e-05
3.2318225e-05
1.704117e-05
3.2507947e-05
4.7937631e-05
6.8020356e-05
0.00010373033
0.00013137915
0.00012544252
9.8153722e-05
6.723039e-05
4.118995e-05
2.5194386e-05
1.6377125e-05
9.919368e-06
7.0977494e-06
4.7080524e-06
5.1770418e-06
6.6474428e-06
8.387193e-06
1.101903e-05
2.5497467e-05
4.912052e-05
8.0335226e-05
0.00011762385
0.00014736175
0.00015060575
0.00012121004
6.9889613e-05
3.354376e-05
1.6941164e-05
3.1045536e-05
4.3031953e-05
6.7048625e-05
0.0001041219
0.00013189648
0.00012841012
0.00010482115
7.6148757e-05
4.9102255e-05
3.0897524e-05
2.0461052e-05
1.2468482e-05
8.2164685e-06
7.1618509e-06
7.0015762e-06
7.1405722e-06
9.3519199e-06
1.6777132e-05
3.3383121e-05
5.7740693e-05
9.0564378e-05
0.0001275359
0.00015099174
0.00014595474
0.00011138108
5.9773485e-05
3.4319244e-05
1.4443869e-05
2.5214275e-05
3.7934112e-05
6.3418056e-05
0.00010056424
0.0001303704
0.00013229434
0.00011473319
8.9008327e-05
6.1989032e-05
4.1186981e-05
2.8446341e-05
1.9618624e-05
1.2347093e-05
9.1910951e-06
8.7915636e-06
1.0956996e-05
1.6665466e-05
2.7941759e-05
4.6443777e-05
7.2726391e-05
0.00010654212
0.00013862446
0.0001518053
0.00013707888
9.8381454e-05
4.9343828e-05
2.5444564e-05
1.5796951e-05
3.2662237e-05
5.7166404e-05
9.3065322e-05
0.000125869
0.00013464032
0.00012536103
0.00010455722
7.9904533e-05
5.7177147e-05
4.1747925e-05
3.2255386e-05
2.518382e-05
2.0657178e-05
2.0038646e-05
2.3606717e-05
3.1558191e-05
4.5370771e-05
6.607446e-05
9.3958012e-05
0.00012485658
0.00014668603
0.00014764415
0.00012333469
7.8593229e-05
3.4352293e-05
2.1229203e-05
2.6933802e-05
4.8460358e-05
8.1317375e-05
0.00011723547
0.00013271682
0.00013325402
0.00012090566
0.00010127637
7.9183213e-05
6.0974796e-05
4.9650041e-05
4.3179446e-05
3.9649462e-05
3.9586418e-05
4.4073554e-05
5.3847521e-05
6.9642191e-05
9.1544797e-05
0.0001172175
0.00013936272
0.00014824786
0.00013596932
0.00010273893
5.7537854e-05
2.805384e-05
1.8781088e-05
2.1676558e-05
3.7888111e-05
6.5015825e-05
0.00010330464
0.00012543404
0.0001345113
0.00013306505
0.00012258889
0.00010551498
8.74694e-05
7.374986e-05
6.6085852e-05
6.3374155e-05
6.480098e-05
7.0818253e-05
8.1934212e-05
9.7979187e-05
0.00011719004
0.00013508443
0.00014548245
0.00014079308
0.00011810963
7.9308131e-05
4.1466356e-05
1.9883334e-05
7.8448288e-06
7.6802487e-06
2.6117613e-05
4.492535e-05
8.229866e-05
0.00011050743
0.00012671972
0.000134527
0.00013659614
0.0001294784
0.00011718501
0.00010472424
9.6032774e-05
9.2938982e-05
9.4828762e-05
0.00010112208
0.00011114862
0.00012358564
0.00013569445
0.00014373344
0.00014158866
0.00012544959
9.2684381e-05
4.7490927e-05
1.6708948e-05
9.8251397e-06
1.6739064e-05
2.5851624e-05
5.4580006e-05
8.6997868e-05
0.00011008352
0.0001229995
0.00013449605
0.00014063815
0.00013915709
0.00013335813
0.00012718759
0.000124031
0.00012421231
0.00012780507
0.00013383676
0.00014035999
0.00014368626
0.0001403576
0.00012622616
9.7565166e-05
5.6747685e-05
2.5279575e-05
1.9816549e-05
1.1777445e-05
2.7796226e-05
5.4900505e-05
8.2312332e-05
0.00010161284
0.00011534747
0.00013046319
0.00013964469
0.00014461325
0.00014556192
0.00014483687
0.00014442438
0.00014477695
0.00014522932
0.00014367501
0.00013714202
0.00012185704
9.323703e-05
5.5966625e-05
2.6690595e-05
1.8482957e-05
9.5379255e-06
1.1992213e-05
2.6214486e-05
4.4371634e-05
7.2689296e-05
8.4773345e-05
0.00010243679
0.00011630503
0.00012719401
0.0001353614
0.00013926312
0.00013989078
0.00013766087
0.0001321842
0.00012177058
0.00010410925
7.7823922e-05
4.7281448e-05
2.5103207e-05
1.8510648e-05
9.8839055e-06
1.0591709e-05
1.7299854e-05
3.9703716e-05
5.1034161e-05
6.3368129e-05
8.0130744e-05
8.9483253e-05
9.923633e-05
0.00010495073
0.00010593587
0.00010172578
9.2177038e-05
7.7740938e-05
5.9495054e-05
4.0971726e-05
2.628091e-05
1.4638302e-05
9.4770866e-06
1.1214315e-05
1.9885293e-05
2.8170352e-05
2.9829909e-05
4.2533701e-05
5.0081345e-05
5.6050707e-05
5.8900608e-05
5.8415539e-05
5.4040463e-05
4.6100236e-05
3.7005898e-05
2.8423408e-05
2.1891878e-05
1.3244537e-05
1.5410176e-05
9.9235658e-06
2.1445988e-05
2.3954037e-05
3.2398528e-05
3.4242172e-05
3.4033565e-05
3.1494906e-05
2.7377216e-05
2.4192016e-05
1.8718061e-05
7.144669e-06
8.7068598e-06
1.627773e-05
1.6740306e-05
1.6145174e-05
1.3289055e-05
1.0391317e-05
2.4004696e-05
3.6931717e-05
4.0353676e-05
4.2485927e-05
4.2333029e-05
3.8211029e-05
2.8159387e-05
1.8468299e-05
2.045077e-05
3.4094576e-05
4.2562647e-05
5.0960874e-05
5.9677536e-05
6.8138876e-05
7.6476038e-05
8.4493807e-05
8.8538772e-05
8.6068154e-05
6.7573961e-05
5.4387678e-05
1.480208e-05
1.0283323e-05
8.5280519e-06
3.0537766e-05
4.5911302e-05
5.8478389e-05
6.9394991e-05
7.8252829e-05
8.454883e-05
8.8052863e-05
9.030865e-05
9.3539467e-05
9.9258085e-05
0.00010704847
0.00011058478
0.00010436283
8.2967155e-05
3.2788649e-05
2.1625746e-05
1.1009717e-05
3.317213e-05
5.7587722e-05
8.287505e-05
0.00010404843
0.00011976566
0.00013009526
0.00013554262
0.00013602782
0.00013208305
0.00012528213
0.00011889879
0.00011702238
0.00012230523
0.00012698151
0.00012793155
8.9890929e-05
4.9615545e-05
1.567079e-05
1.1568773e-05
4.2308711e-05
8.3097157e-05
0.00011878523
0.00014319154
0.00015803125
0.00016631994
0.00017032062
0.00017166211
0.00017127238
0.00016870088
0.00016315286
0.00015410655
0.00014311931
0.00013621188
0.00013575752
0.0001430329
0.00013627228
0.00010251677
4.9942407e-05
1.4604722e-05
9.5519617e-06
4.5605303e-05
9.407826e-05
0.00013417003
0.00015654897
0.00016648339
0.00016966513
0.00016875674
0.00016520646
0.00016075236
0.00015753771
0.00015755692
0.00015998291
0.00016219203
0.0001605185
0.0001544677
0.00014806767
0.00014905893
0.00015433556
0.00014263108
0.0001007151
4.3209004e-05
1.296167e-05
3.2465046e-05
8.6305779e-05
0.00013414714
0.00015551303
0.00016074369
0.0001603599
0.00015666324
0.00014850482
0.00013737545
0.00012635756
0.0001185298
0.00011635915
0.00012112387
0.00013207165
0.00014492166
0.00015364368
0.00015554032
0.00015512902
0.0001603742
0.00016174951
0.00014043413
8.3985091e-05
3.7671391e-05
1.1758087e-05
2.0786549e-05
8.0828814e-05
0.00012939165
0.00014729971
0.00014859923
0.00014831769
0.0001474756
0.00013929993
0.00012374948
0.0001057897
9.0017869e-05
7.9031378e-05
7.3918616e-05
7.5880315e-05
8.6481617e-05
0.00010544838
0.00012763187
0.00014500778
0.00015445763
0.00016202426
0.00016919507
0.00016274153
0.00012102455
6.272862e-05
2.2321605e-05
5.344693e-05
0.00010674672
0.00013180901
0.00013440102
0.00013668221
0.00014299179
0.00013981432
0.00012250988
9.8502416e-05
7.5691205e-05
5.8267896e-05
4.7215445e-05
4.2015484e-05
4.2336719e-05
4.9225368e-05
6.5498709e-05
9.1260767e-05
0.00011975871
0.00014220696
0.00015832752
0.00017082847
0.00017379635
0.00014611995
8.8135988e-05
3.7653171e-05
1.5642336e-05
1.0103065e-05
6.8048282e-05
0.00011387506
0.0001225153
0.00012437309
0.00013715545
0.00014442894
0.00013032997
0.00010232864
7.3390286e-05
5.0774638e-05
3.5953507e-05
2.780303e-05
2.4249206e-05
2.3726756e-05
2.6777648e-05
3.7187399e-05
5.924122e-05
9.0910007e-05
0.00012271869
0.00014842579
0.00016834182
0.00017871607
0.00016149898
0.00010913154
4.8472997e-05
2.6717645e-05
2.2511507e-05
8.7246078e-05
0.00010940361
0.00011014507
0.00012364804
0.00014472235
0.0001433229
0.00011686016
8.3023187e-05
5.5049215e-05
3.627151e-05
2.5421542e-05
2.0030964e-05
1.6273034e-05
1.5797964e-05
1.6898034e-05
2.1796003e-05
3.7415379e-05
6.6837792e-05
0.00010275434
0.00013586763
0.00016313551
0.00018024025
0.0001704624
0.00012408385
5.8968439e-05
2.9411486e-05
1.6230411e-05
8.9572664e-05
9.8646224e-05
0.00010454006
0.00013193747
0.00015179082
0.0001384326
0.00010442595
7.0283408e-05
4.5706348e-05
2.9531705e-05