/*--------------------------------*- C++ -*----------------------------------*\
| =========                 |                                                 |
| \\      /  F ield         | OpenFOAM: The Open Source CFD Toolbox           |
|  \\    /   O peration     | Version:  2406                                  |
|   \\  /    A nd           | Website:  www.openfoam.com                      |
|    \\/     M anipulation  |                                                 |
\*---------------------------------------------------------------------------*/
FoamFile
{
    version     2.0;
    format      ascii;
    arch        "LSB;label=32;scalar=64";
    class       volScalarField;
    location    "900";
    object      p;
}
// * * * * * * * * * * * * * * * * * * * * * * * * * * * * * * * * * * * * * //

dimensions      [0 2 -2 0 0 0 0];

internalField   nonuniform List<scalar> 
150387
(
0.0036297778
0.0045818066
0.0034456734
0.0031661561
0.0031083008
0.0033142718
0.004723709
0.0049312644
0.0057517539
0.0037349866
0.0024206515
0.00083008645
-0.00037399019
-0.0013842888
-0.0018242785
-0.0018172252
-0.0013503537
-0.0002923244
0.0010663247
0.0021934567
0.0033467815
0.0045384027
0.0023627309
-0.00019753632
-0.0024153161
-0.004411307
-0.005972389
-0.0070343368
-0.0074411979
-0.0072740948
-0.0065923588
-0.0054232004
-0.0038833822
-0.0020153237
-7.7718843e-05
0.0021462212
0.0044609526
0.0048695689
0.0036445361
0.00097675271
-0.0020838254
-0.0050668515
-0.0077612019
-0.010096716
-0.011971384
-0.01324614
-0.013776691
-0.013613198
-0.01280811
-0.01140464
-0.0095000039
-0.0071705403
-0.004551905
-0.001756261
0.00076488674
0.0031104457
0.0057484067
0.0038964399
0.00060715909
-0.002969903
-0.0066895808
-0.010254343
-0.01350085
-0.016307098
-0.018543755
-0.020085646
-0.020757196
-0.020565928
-0.019600492
-0.017935386
-0.015674474
-0.012898723
-0.0097673731
-0.0064202871
-0.0030631813
1.7393335e-05
0.0027144697
0.0041998549
0.00088573642
-0.0031244704
-0.0073916846
-0.01172264
-0.015909003
-0.019790059
-0.023198235
-0.025958256
-0.027910248
-0.028813157
-0.028568429
-0.027341062
-0.025272585
-0.022514757
-0.019190951
-0.015450636
-0.011453497
-0.0074206763
-0.003470702
-4.9675619e-05
0.0033591017
0.0050143294
0.0017891808
-0.0023895681
-0.0070471844
-0.011965825
-0.016967971
-0.021884989
-0.026542643
-0.030760519
-0.034275615
-0.036836438
-0.038113932
-0.03781587
-0.036202218
-0.033529154
-0.030054669
-0.025997847
-0.021528081
-0.016794971
-0.012029226
-0.0073681811
-0.0030896195
0.00087594193
0.0032528899
0.0065990835
0.0031098968
-0.00093616266
-0.0057665869
-0.011045476
-0.016606478
-0.02232888
-0.02806411
-0.033671236
-0.038954503
-0.04355337
-0.046999107
-0.048838761
-0.048614062
-0.046533382
-0.043023207
-0.038501824
-0.033370992
-0.027931574
-0.0223197
-0.016737389
-0.011338714
-0.0063761849
-0.0018836527
0.0016131755
0.0045322604
0.00099641248
-0.003706168
-0.0090727584
-0.014904148
-0.021099892
-0.027564326
-0.034218223
-0.041006639
-0.047658814
-0.053553238
-0.058014998
-0.060505128
-0.06054429
-0.058082733
-0.053689985
-0.047904035
-0.041348993
-0.03458411
-0.027881966
-0.021368714
-0.01517057
-0.0095117314
-0.0043844468
-0.00013158261
0.0036554044
0.003273654
-0.0011191957
-0.0063347201
-0.0121329
-0.018461768
-0.025250088
-0.032472432
-0.040191596
-0.048383249
-0.056477552
-0.063437142
-0.068492042
-0.07128618
-0.071613561
-0.069126687
-0.064299117
-0.057545873
-0.049588119
-0.04129876
-0.033274848
-0.025722709
-0.018691192
-0.012335594
-0.0066577244
-0.0017720651
0.0021098431
0.0061075525
0.0018563955
-0.0029876037
-0.0086177694
-0.014768753
-0.021533182
-0.028871587
-0.036895001
-0.045770434
-0.055341104
-0.064474644
-0.071845164
-0.077010098
-0.079835915
-0.080148516
-0.077712025
-0.072888835
-0.065865833
-0.057089883
-0.047521095
-0.038170123
-0.029550773
-0.021709811
-0.014719188
-0.008591469
-0.0033044987
0.00064051798
0.0048122859
0.00044678572
-0.0045681595
-0.010463908
-0.016878329
-0.023999863
-0.031846043
-0.040633977
-0.050563444
-0.061152129
-0.070671784
-0.078079038
-0.083294312
-0.086194514
-0.086368834
-0.083803799
-0.078908171
-0.071842671
-0.062808287
-0.05248289
-0.04209176
-0.03252965
-0.02400459
-0.016508214
-0.010031647
-0.0044476856
-9.0887549e-06
0.0031904143
0.0039833658
-0.00054110607
-0.005743767
-0.011778216
-0.018366185
-0.025764585
-0.03401848
-0.043393193
-0.054066675
-0.065124031
-0.074615766
-0.081996556
-0.08731609
-0.090442269
-0.090441479
-0.087522064
-0.082467515
-0.075327512
-0.066211393
-0.055577412
-0.044536672
-0.034338891
-0.025347577
-0.017556181
-0.010876935
-0.0052121268
-0.00062952415
0.0029261964
0.0035148801
-0.00083779274
-0.0063838928
-0.012483846
-0.019166063
-0.026729502
-0.035209283
-0.044873979
-0.055845051
-0.066848936
-0.076137961
-0.083575536
-0.089814849
-0.092880959
-0.09137652
-0.088599366
-0.08343947
-0.076250719
-0.06714713
-0.056434499
-0.04515194
-0.034773789
-0.025714569
-0.017885958
-0.011150392
-0.0053458342
-0.00084635407
0.0024283561
0.0035834589
-0.00094059096
-0.0064658511
-0.012571374
-0.01922669
-0.026779597
-0.035195501
-0.044713463
-0.055387844
-0.065904312
-0.074859282
-0.081960844
-0.087711022
-0.092913716
-0.089974912
-0.087195856
-0.082186826
-0.0751168
-0.066086162
-0.05539982
-0.044305762
-0.03416047
-0.025285075
-0.017584504
-0.010922025
-0.0053144815
-0.00069381453
0.0025362905
0.0043071594
-0.00040700468
-0.00597229
-0.011981055
-0.018496149
-0.025818738
-0.033828916
-0.042794054
-0.052787732
-0.062758595
-0.071389895
-0.078143978
-0.082950512
-0.085497563
-0.085546723
-0.083340291
-0.078739218
-0.071995928
-0.063209698
-0.052829659
-0.042194251
-0.032507556
-0.024007433
-0.016597622
-0.010127223
-0.0046865752
-0.00028353083
0.0027658266
0.0052102168
0.00046783977
-0.0048783674
-0.01067694
-0.016930936
-0.02384609
-0.031309729
-0.039531709
-0.048549576
-0.057744152
-0.065954177
-0.072372498
-0.076792382
-0.07911252
-0.079374621
-0.077490025
-0.073266711
-0.066865067
-0.058446988
-0.048669254
-0.03884387
-0.029895793
-0.021971515
-0.014995201
-0.0088517368
-0.0036450069
4.2784212e-05
0.002955101
0.0055460847
0.0016229092
-0.0032719257
-0.0087549794
-0.014667736
-0.021096117
-0.02793715
-0.035240342
-0.043099059
-0.051217959
-0.058764356
-0.064848369
-0.06899932
-0.071170195
-0.07152893
-0.069885429
-0.065975571
-0.059944714
-0.052105035
-0.043280567
-0.034555811
-0.026548431
-0.01933771
-0.012902538
-0.0071995151
-0.0023037425
0.0011028109
0.0029045574
-0.0013155003
-0.0064133899
-0.011857007
-0.017748577
-0.023899077
-0.030291495
-0.036958324
-0.04378791
-0.050306881
-0.055823886
-0.059741858
-0.061819678
-0.062267746
-0.060814992
-0.057227195
-0.051720713
-0.044780592
-0.037189851
-0.029708235
-0.022705446
-0.016267117
-0.010423626
-0.0052367321
-0.00079381847
0.002215408
0.0042587568
0.0008724182
-0.0037269533
-0.0086185849
-0.013932418
-0.019402416
-0.024984682
-0.030598676
-0.036181983
-0.041486606
-0.04608338
-0.04950231
-0.051446118
-0.051945864
-0.050756597
-0.047653115
-0.042967587
-0.037190666
-0.030923066
-0.02464374
-0.018599118
-0.012918371
-0.0076828091
-0.0031471951
0.0006336247
0.0042246799
0.0032993715
-0.00077657944
-0.0050950024
-0.0098152669
-0.014648642
-0.019508643
-0.024280546
-0.028870399
-0.033117663
-0.036768675
-0.039515365
-0.041119768
-0.041520134
-0.040653401
-0.038219025
-0.034495456
-0.029888662
-0.02480175
-0.019552233
-0.014368741
-0.0094145254
-0.0047958245
-0.00070773627
0.0019373689
0.0053032911
0.001887967
-0.0015531016
-0.0056383652
-0.0098283669
-0.014041224
-0.018118847
-0.02196502
-0.025435267
-0.028368685
-0.030561034
-0.031844665
-0.032132037
-0.031455489
-0.029620159
-0.026748778
-0.023098887
-0.018961188
-0.014572542
-0.010161901
-0.0058876581
-0.0020641834
0.0012661425
0.0025656977
0.0045607472
0.0016523602
-0.0016135739
-0.0051780182
-0.0087584275
-0.012223944
-0.015471598
-0.018358406
-0.020770159
-0.022560972
-0.023617311
-0.023860811
-0.023323209
-0.021939134
-0.019691163
-0.016777153
-0.01339527
-0.0097273661
-0.006014489
-0.0025575105
0.00069494091
0.0036489704
0.0042833401
0.0017437772
-0.00092687789
-0.0038657054
-0.0067666916
-0.0095003761
-0.01191695
-0.013928465
-0.01541279
-0.016289793
-0.016503917
-0.016071497
-0.015019279
-0.0132717
-0.010970066
-0.0082417657
-0.0051952949
-0.0023167111
0.00056562436
0.0029292524
0.0045554798
0.0027366638
0.00029687748
-0.0019366003
-0.0041510931
-0.0061150424
-0.0077858811
-0.0090294872
-0.0097862404
-0.010014144
-0.0097128728
-0.0089097858
-0.0075138755
-0.0056899961
-0.0035664243
-0.00097920735
0.0010860191
0.003869091
0.0051073888
0.0035072311
0.0020900184
0.00033512459
-0.0012963652
-0.0026648101
-0.0036488208
-0.0042624989
-0.0044604364
-0.0042016847
-0.0035764339
-0.0024795675
-0.0011731964
0.00028618422
0.0020397772
0.0024115742
0.0052934469
0.0034601986
0.0021736393
0.0014227169
0.00077741029
0.00026165663
9.5105212e-05
0.00031782909
0.00056383927
0.0014223445
0.002252146
0.0037694291
0.0046330996
0.0040489089
0.0037189899
0.0035411545
0.0045535674
0.0034222971
0.005293925
0.0052443818
0.0050513838
0.0032324569
0.0029299176
0.0028492821
0.0029688409
0.004849936
0.0052678421
0.0055470625
0.0024876973
0.0013056524
-0.00022375079
-0.0014063016
-0.0024947385
-0.0027974835
-0.0026347235
-0.0020144923
-0.00076212445
0.00063360423
0.0017156924
0.0034608284
0.0056379413
0.005366529
0.0041973256
0.00092070898
-0.0015190648
-0.003742504
-0.0057157992
-0.0071686214
-0.0080725459
-0.0083374034
-0.0080432171
-0.0072394983
-0.0059428207
-0.0043854852
-0.0023696315
-0.00072478414
0.0020185484
0.0047421592
0.0056638328
0.0022535952
-0.00033352433
-0.0037436902
-0.0067235982
-0.0093520274
-0.011595148
-0.013290904
-0.014428496
-0.014855619
-0.014580172
-0.01366359
-0.012117773
-0.010081476
-0.0076054388
-0.0048237494
-0.0019281412
0.00030957762
0.0034617005
0.0059937283
0.0024601676
-0.00053293206
-0.0044813353
-0.008346673
-0.01195101
-0.015207251
-0.017974187
-0.020079021
-0.021429237
-0.021970861
-0.021621419
-0.020503058
-0.018676311
-0.016267341
-0.013339909
-0.010096931
-0.0066494725
-0.0030357864
-0.00014368461
0.0032562891
0.0065033586
0.0026420544
-0.0002929141
-0.0047519611
-0.009145118
-0.013593966
-0.017863065
-0.021790527
-0.025203618
-0.027887912
-0.029605403
-0.030294105
-0.029839396
-0.028418246
-0.026140678
-0.023173848
-0.019647969
-0.015744867
-0.011589395
-0.00750454
-0.0032731164
-0.00022888424
0.0032700468
0.0044029245
0.00063643752
-0.0039028648
-0.0087136421
-0.013792248
-0.018957397
-0.024022988
-0.028835279
-0.033166957
-0.036689709
-0.039047598
-0.039947195
-0.039340034
-0.037479718
-0.034543483
-0.030793918
-0.02646459
-0.02178738
-0.016873158
-0.012019213
-0.0072524834
-0.0029228427
0.0012815029
0.0028607859
0.0066921905
0.0015252399
-0.0022977683
-0.007392179
-0.012827259
-0.018582279
-0.024506629
-0.030493873
-0.036392523
-0.041892735
-0.046498824
-0.049735358
-0.051010021
-0.050289619
-0.047912212
-0.044131781
-0.039310546
-0.033856521
-0.028137733
-0.022314411
-0.016629661
-0.011137858
-0.006266959
-0.0016850587
0.0012054559
0.0036083971
-0.00018061859
-0.0051602072
-0.01068775
-0.01673196
-0.02314521
-0.029898592
-0.036958255
-0.044151662
-0.050988879
-0.056732586
-0.060778256
-0.062563994
-0.06198025
-0.059169848
-0.054557372
-0.048549611
-0.041732263
-0.034695819
-0.027746717
-0.021125079
-0.014820874
-0.0092592137
-0.0039495772
-0.00010503771
0.0032886581
0.00696037
0.0023074127
-0.0023657443
-0.0078065932
-0.013759589
-0.020319013
-0.027367458
-0.035002016
-0.043235057
-0.051772999
-0.059816165
-0.066389515
-0.070916473
-0.072990619
-0.072538568
-0.069661128
-0.064612584
-0.057698684
-0.04959957
-0.041159276
-0.032947464
-0.025298069
-0.01818518
-0.011896879
-0.0061316306
-0.0011659958
0.0025830715
0.005779503
0.00077277586
-0.0041363542
-0.010041756
-0.016344827
-0.023358239
-0.031026245
-0.039545662
-0.048907318
-0.058581904
-0.067397362
-0.074333899
-0.079081332
-0.081291126
-0.080852599
-0.077999713
-0.072833907
-0.065519181
-0.056572808
-0.046961314
-0.037554406
-0.028899414
-0.021037465
-0.014122421
-0.0080067067
-0.0025511221
0.00044460888
0.0043945636
-0.00067067024
-0.0056710787
-0.011825397
-0.018383798
-0.025767745
-0.033974074
-0.043248899
-0.053511997
-0.063909081
-0.07303007
-0.080268905
-0.085212138
-0.087503526
-0.086890086
-0.083975146
-0.078611094
-0.071159916
-0.061827051
-0.051458357
-0.041129766
-0.031639798
-0.023165401
-0.015769381
-0.0093577376
-0.0036141723
-0.00022121859
0.0039569992
0.0037599908
-0.0017483771
-0.0068223467
-0.013023427
-0.019764397
-0.027406665
-0.035997154
-0.045787643
-0.056602099
-0.06724662
-0.076427252
-0.083717155
-0.087342019
-0.090254229
-0.090420027
-0.087408624
-0.081898006
-0.074370598
-0.064910023
-0.054160646
-0.043264298
-0.033238281
-0.024388346
-0.016754706
-0.010154484
-0.0046122822
-0.00085870973
0.0036291998
0.0022199133
-0.0015267017
-0.0074098126
-0.013569429
-0.020413939
-0.028180875
-0.036950217
-0.0469698
-0.057891264
-0.068354197
-0.077377506
-0.084589729
-0.090146282
-0.093076886
-0.091355367
-0.088023057
-0.082543708
-0.074994207
-0.065557422
-0.054734814
-0.043698534
-0.033563686
-0.024648285
-0.016948121
-0.010351857
-0.0043569778
-0.00052744806
0.0031037242
0.0033218409
-0.0018987984
-0.0073357283
-0.013501562
-0.020282964
-0.02796889
-0.036604424
-0.046437539
-0.056987649
-0.067059925
-0.075663654
-0.082273378
-0.088025667
-0.092994659
-0.090070033
-0.086094328
-0.080815364
-0.073362214
-0.064004484
-0.053335392
-0.042548755
-0.032686117
-0.023986086
-0.016479776
-0.0099275708
-0.0046349221
-0.00090784052
0.0034170913
0.004037607
-0.0010393462
-0.0067144057
-0.012712639
-0.019328515
-0.0267716
-0.035013682
-0.044237625
-0.054075379
-0.063616584
-0.071873985
-0.078382327
-0.082823558
-0.084998609
-0.084423138
-0.081908301
-0.076863231
-0.0696873
-0.060583707
-0.050337331
-0.040121462
-0.030788978
-0.022508827
-0.015331541
-0.0089332739
-0.0037555481
-0.00039728166
0.0039866633
0.005075969
-0.00010997032
-0.0055382327
-0.011337006
-0.017639495
-0.02464858
-0.03224119
-0.040614814
-0.049516576
-0.058314321
-0.066105795
-0.072213319
-0.076441722
-0.078544695
-0.078212959
-0.075746666
-0.070974866
-0.064120051
-0.055484983
-0.045975655
-0.036611322
-0.02803512
-0.020350529
-0.013615704
-0.007564824
-0.0024204036
0.00019216239
0.0056573102
0.0011792233
-0.00381409
-0.0093912465
-0.01524218
-0.021731107
-0.02857853
-0.035972946
-0.04374651
-0.051530561
-0.058626473
-0.064355231
-0.068268129
-0.070256896
-0.070105602
-0.067836102
-0.063369519
-0.056971168
-0.049102435
-0.040624585
-0.032322622
-0.024649534
-0.017677806
-0.011470395
-0.0059352491
-0.0010142911
0.00084644457
0.002195606
-0.0017899275
-0.0070094374
-0.012294175
-0.018198878
-0.024284967
-0.030706811
-0.037307148
-0.043906499
-0.050020895
-0.055129858
-0.058785776
-0.060726521
-0.060658668
-0.058589136
-0.054528856
-0.048828082
-0.041994737
-0.034722396
-0.027567345
-0.020835602
-0.014609702
-0.008969124
-0.0039374884
8.2243749e-05
0.0031007236
0.0048425401
0.00041361509
-0.0042404094
-0.0089328613
-0.014218879
-0.019589341
-0.025140751
-0.030681512
-0.03613043
-0.041162851
-0.045424948
-0.048553931
-0.050303782
-0.05037203
-0.048646249
-0.045204064
-0.040427082
-0.034759306
-0.028708121
-0.022650868
-0.01680963
-0.011324985
-0.0062122749
-0.0021660723
0.00040465857
0.0046251263
0.0057755814
0.003385961
-0.001039667
-0.005256755
-0.0099759253
-0.014665812
-0.019481834
-0.024151397
-0.028642068
-0.032717331
-0.036154736
-0.038684288
-0.040119524
-0.040237602
-0.0389044
-0.036167186
-0.032345688
-0.027778369
-0.022811913
-0.017701199
-0.012665409
-0.0079023266
-0.0033414189
0.00047804497
0.0017916581
0.0048900115
0.0014463217
-0.0014361311
-0.0057145759
-0.0097391555
-0.013887026
-0.017860204
-0.021614853
-0.024951363
-0.027738701
-0.029772502
-0.030919672
-0.03103959
-0.030039856
-0.02794129
-0.024952486
-0.021299919
-0.017213159
-0.012908895
-0.0086263269
-0.0043449535
-0.0010906719
0.001211195
0.0048298704
0.0014117122
-0.0014073804
-0.0050440179
-0.0085487875
-0.011880765
-0.015033496
-0.017793778
-0.020092453
-0.021763931
-0.022720058
-0.022860227
-0.022107959
-0.020487619
-0.018114311
-0.015165741
-0.011811802
-0.008174398
-0.0044246502
-0.0014073217
0.00069379727
0.0037410456
0.004680746
0.0014675851
-0.00060454935
-0.0035556874
-0.0064186506
-0.0090910634
-0.011407545
-0.013342921
-0.014730513
-0.015524825
-0.015652381
-0.015069625
-0.013823128
-0.011976269
-0.009675907
-0.0069624729
-0.0038368908
-0.001363718
0.00067240542
0.0033247873
0.004700232
0.0030287687
0.00018098622
-0.001513364
-0.0036949207
-0.0054978506
-0.0071202091
-0.008311335
-0.0090399027
-0.0092514296
-0.008835068
-0.0078315567
-0.0062883213
-0.004423044
-0.0023963142
0.00053696606
0.0012833089
0.0035938707
0.005275101
0.0036859582
0.0021048509
0.00083386205
-0.0007441651
-0.0022308613
-0.003195049
-0.0037650022
-0.0038709251
-0.0032322865
-0.0024425091
-0.0013177969
-0.00051460049
0.00037924363
0.0032178764
0.0055993057
0.0034062402
0.002426188
0.0017097066
0.0010317458
0.00052592745
0.00035980907
0.00049105478
0.00095332938
0.001535277
0.0035362673
0.0029972462
0.0051517706
0.0046539008
0.004034371
0.0042625476
0.0041745237
0.0049240885
0.0050638337
0.0050816863
0.0029242557
0.002660563
0.0025735203
0.0026591669
0.0047406984
0.0050612591
0.005203449
0.0021513219
0.0010876119
-0.00037823865
-0.0015885926
-0.0027779648
-0.0031055168
-0.0029112624
-0.00222107
-0.00085063684
0.00054292039
0.0015966631
0.0035004387
0.0057153687
0.0051584149
0.0041018565
0.000739411
-0.0017258955
-0.0039225747
-0.0059120305
-0.007388922
-0.0082941136
-0.0084919117
-0.0081297023
-0.0072780746
-0.0059470073
-0.0044063894
-0.0023970021
-0.00084705793
0.0019411119
0.0050397529
0.0055204095
0.0020281472
-0.00048171852
-0.0039592553
-0.006976421
-0.0096003176
-0.011837719
-0.013518369
-0.014641234
-0.015032737
-0.014701632
-0.013717912
-0.012100051
-0.010025328
-0.0075366233
-0.0047655676
-0.0018826095
0.00019228726
0.0035522264
0.005901903
0.0023692315
-0.00049585732
-0.004541494
-0.0085005244
-0.01215155
-0.015419609
-0.018195265
-0.020305686
-0.0216378
-0.022148058
-0.021768785
-0.020605842
-0.018710449
-0.016235794
-0.013255739
-0.0099959057
-0.0065533947
-0.0029426255
-0.00023746084
0.0032201921
0.0064212086
0.0024714793
-0.00023114361
-0.0047886566
-0.0092503675
-0.013747284
-0.018037732
-0.021981658
-0.025408964
-0.02809958
-0.029795228
-0.030452054
-0.029994368
-0.028564825
-0.026242315
-0.02320372
-0.019588939
-0.015634018
-0.011464525
-0.0074083734
-0.0031880972
-0.00041310725
0.0032128001
0.0044273011
0.00067299066
-0.0038904468
-0.0087374886
-0.013858493
-0.019052392
-0.024156224
-0.029011588
-0.033366451
-0.036878824
-0.039201866
-0.040046814
-0.039437126
-0.037618616
-0.034694163
-0.030904394
-0.026483179
-0.021713442
-0.016750799
-0.011927113
-0.0071667497
-0.0029732152
0.0012277642
0.0022576815
0.006826434
0.0013765106
-0.0022825158
-0.007389298
-0.012856303
-0.018637948
-0.024611023
-0.030665432
-0.036614509
-0.042098336
-0.046617576
-0.049742202
-0.050915965
-0.050198022
-0.047929857
-0.044243005
-0.039457326
-0.03395575
-0.028138965
-0.022227069
-0.016550356
-0.011078511
-0.0063002064
-0.0017581758
0.00085815819
0.0035296045
-0.00020456867
-0.0051321
-0.010682105
-0.016756297
-0.023226262
-0.030060061
-0.037199136
-0.044392187
-0.05109603
-0.056644822
-0.060532123
-0.06218266
-0.061536474
-0.058874013
-0.05445589
-0.048606439
-0.041848084
-0.034764421
-0.027717583
-0.021066362
-0.01477643
-0.0092835667
-0.0039714928
-0.00023962342
0.0030611682
0.0068446697
0.0022419527
-0.0023845637
-0.0077883469
-0.013776811
-0.020387049
-0.027516869
-0.03523558
-0.043503789
-0.051914414
-0.059684872
-0.066037193
-0.070458823
-0.072478886
-0.071977951
-0.069116146
-0.064186479
-0.057488963
-0.049586276
-0.041219401
-0.032958865
-0.025263108
-0.018149532
-0.011899244
-0.0060946725
-0.0011927479
0.0025531361
0.0058606008
0.00069265606
-0.0041382547
-0.01004862
-0.016402666
-0.023485228
-0.031231111
-0.039800555
-0.049106066
-0.058511615
-0.06702419
-0.073880062
-0.078669333
-0.080917745
-0.080443984
-0.077492763
-0.072278681
-0.065063069
-0.056340794
-0.046917539
-0.03755489
-0.028877153
-0.021011978
-0.01411886
-0.0079741685
-0.002488243
0.00026114939
0.00405652
-0.00086615365
-0.0057133652
-0.011896082
-0.018502105
-0.025941573
-0.034197391
-0.04346844
-0.053562686
-0.063617593
-0.072567511
-0.079900352
-0.084813422
-0.087228961
-0.086618221
-0.083629701
-0.07815891
-0.07065074
-0.061427503
-0.05127672
-0.041075079
-0.03161342
-0.023149944
-0.015765401
-0.0093457051
-0.0035529946
-0.00050995307
0.0037880149
0.0035701525
-0.0020071454
-0.0069249713
-0.013157134
-0.019931863
-0.027598448
-0.036204209
-0.04593062
-0.056484856
-0.066811102
-0.076022865
-0.083437691
-0.087062081
-0.090135163
-0.09026954
-0.087134081
-0.081599757
-0.07394237
-0.064439285
-0.053861844
-0.043140136
-0.033191433
-0.024367926
-0.01675105
-0.010154972
-0.004648553
-0.0010176188
0.0037669127
0.0018534972
-0.0017529788
-0.007596272
-0.013750914
-0.020612177
-0.028370478
-0.037137141
-0.047061161
-0.057724747
-0.067978157
-0.077098538
-0.084328139
-0.090190425
-0.093076347
-0.091357383
-0.087856237
-0.082326883
-0.074618423
-0.065065022
-0.054375001
-0.04353134
-0.03349277
-0.024621264
-0.016935743
-0.010345903
-0.0043595817
-0.00062722267
0.0031310327
0.0030888454
-0.0022021884
-0.0075750135
-0.013726075
-0.020498264
-0.028171297
-0.036820112
-0.046578439
-0.056907761
-0.066784963
-0.075433172
-0.081952029
-0.088082715
-0.092983628
-0.090114768
-0.085991105
-0.080601636
-0.072984371
-0.063549037
-0.05303726
-0.042435226
-0.032650216
-0.023978976
-0.016466322
-0.0098705683
-0.0047000559
-0.00082561644
0.0034765769
0.0037208963
-0.0012351479
-0.0069532207
-0.012947182
-0.019546722
-0.026992955
-0.035265067
-0.044450761
-0.054114444
-0.063431304
-0.071620153
-0.078185877
-0.082698556
-0.08488786
-0.084281689
-0.081771762
-0.076598419
-0.069297482
-0.060236161
-0.050187888
-0.04010552
-0.030807195
-0.022515232
-0.015300483
-0.0088266141
-0.0038026705
-0.00038111538
0.00396071
0.0050062577
-0.00027443391
-0.0057410978
-0.011581273
-0.01785301
-0.024863197
-0.032499226
-0.040892331
-0.049684943
-0.058262917
-0.06587683
-0.071949023
-0.07626153
-0.078438361
-0.078106822
-0.075560635
-0.07067447
-0.063781254
-0.055296725
-0.045973365
-0.036677914
-0.028087204
-0.02035156
-0.013552355
-0.0074287875
-0.0023830584
0.00029595788
0.0057166742
0.00096366028
-0.0039949539
-0.0096305144
-0.015440585
-0.021927925
-0.028818117
-0.03627643
-0.044024285
-0.051658616
-0.058541755
-0.0641165
-0.068001605
-0.070025287
-0.069889319
-0.067584238
-0.063099366
-0.056784148
-0.049095099
-0.040734488
-0.032435747
-0.024705602
-0.017659074
-0.011383442
-0.0058169784
-0.0009618268
0.00089318463
0.0018540215
-0.0019983611
-0.0072489508
-0.012469625
-0.018371144
-0.024478806
-0.030978578
-0.037618398
-0.044169609
-0.050142906
-0.055068271
-0.058563645
-0.060437182
-0.060413532
-0.058394896
-0.054409801
-0.048833572
-0.04211915
-0.03487595
-0.027667777
-0.020851461
-0.014550022
-0.0088601686
-0.0038420174
0.0001356196
0.0031280143
0.0048705425
0.00021151793
-0.0044480887
-0.0090583456
-0.014353373
-0.019721598
-0.025338872
-0.030939878
-0.036406411
-0.04138727
-0.045544384
-0.048537482
-0.050183237
-0.050264098
-0.048609846
-0.045249516
-0.04055169
-0.034918322
-0.028830107
-0.022690754
-0.016765507
-0.011224405
-0.0060887923
-0.0021736721
0.0004001383
0.0045616868
0.0059169359
0.0032600083
-0.0011933661
-0.0052969838
-0.010047049
-0.014735166
-0.019595934
-0.024319192
-0.028848057
-0.032915346
-0.036306737
-0.038763557
-0.040128379
-0.040247685
-0.038963305
-0.036265684
-0.032464677
-0.027874377
-0.022842775
-0.017654807
-0.012558386
-0.0077660171
-0.0032012817
0.00056013532
0.0018697745
0.0048504752
0.0012129577
-0.0013882105
-0.0057094431
-0.0097392815
-0.013928391
-0.017937205
-0.021731816
-0.025080288
-0.027854118
-0.029852616
-0.030961452
-0.031078673
-0.030101325
-0.028005694
-0.025004872
-0.021319357
-0.017182458
-0.012821684
-0.0084910786
-0.00417248
-0.00108817
0.0014261774
0.0048149991
0.00133241
-0.0013024101
-0.0049852953
-0.0085207618
-0.011881426
-0.015070577
-0.017849419
-0.020157908
-0.021820047
-0.022758889
-0.022890713
-0.022137341
-0.020501087
-0.018106659
-0.015132092
-0.011740387
-0.0080447113
-0.0042695029
-0.0014002316
0.00083019719
0.0038487435
0.0047370019
0.0013642648
-0.00050787424
-0.0034777149
-0.0063512628
-0.0090533248
-0.011388604
-0.013355937
-0.014762253
-0.015564758
-0.015688543
-0.015091508
-0.013831567
-0.011977271
-0.0096794174
-0.0069504045
-0.0038104125
-0.0014468275
0.00074142173
0.003617179
0.0047942735
0.0031110267
0.00013148518
-0.0014424669
-0.0036399038
-0.0054292347
-0.0070763835
-0.0082901066
-0.0090528751
-0.0092858774
-0.008840156
-0.0078068756
-0.0062499416
-0.0044185211
-0.0024062904
0.00054191529
0.0013897251
0.0035779957
0.0053278662
0.0038122923
0.0021279279
0.00086328856
-0.0007239528
-0.0023103943
-0.0033207008
-0.0038920742
-0.0039535661
-0.0032058769
-0.0024060605
-0.0013666741
-0.0006414457
0.00038803794
0.003360681
0.0056872448
0.0034216716
0.002519348
0.0017818607
0.0011357591
0.00063288937
0.00045413861
0.00046287467
0.001060697
0.0014938069
0.0036308997
0.003030746
0.0051690964
0.0047701903
0.0041255618
0.0043890639
0.0042618905
0.0046933801
0.0047586272
0.004847103
0.0025654483
0.002332613
0.0022707951
0.0023914802
0.0045305661
0.0048731423
0.0049414699
0.0017174464
0.00075789056
-0.00070034204
-0.001891031
-0.0031113127
-0.0034143674
-0.0031674705
-0.0024370858
-0.00098407375
0.00045180025
0.0014902341
0.0034711828
0.0056604265
0.0048403592
0.0040308606
0.00050872663
-0.002029116
-0.0042438473
-0.0062467788
-0.0077116295
-0.0085740125
-0.008689714
-0.0082552874
-0.0073544251
-0.0059803291
-0.0044421612
-0.0024035078
-0.00093813849
0.0019611914
0.0049519041
0.0051853666
0.0017966002
-0.00071144981
-0.0043239468
-0.0073919058
-0.010007206
-0.012224854
-0.013871862
-0.01495322
-0.015279229
-0.014872574
-0.013817286
-0.012131205
-0.010025061
-0.0075085337
-0.0047361614
-0.0018043697
0.00010549858
0.0035173722
0.0056096
0.0022942121
-0.00053753664
-0.0047282334
-0.0088041198
-0.012499555
-0.015783856
-0.018564775
-0.020666958
-0.021970676
-0.022425634
-0.021977382
-0.020743948
-0.018775444
-0.016250465
-0.013227623
-0.0099610069
-0.006487363
-0.0028465953
-0.0002537323
0.0031698668
0.0060956163
0.0023428367
-0.00020754862
-0.0049574761
-0.0095242407
-0.014091599
-0.01842043
-0.022382894
-0.025812109
-0.028492687
-0.030164233
-0.030787488
-0.030286869
-0.028803747
-0.026408341
-0.023297217
-0.019613175
-0.015627035
-0.011419418
-0.0073647163
-0.003066761
-0.00046840161
0.003177812
0.0046144072
0.00075770389
-0.0039419736
-0.0088976587
-0.014100072
-0.019360057
-0.024511385
-0.029385679
-0.033729725
-0.037211972
-0.039503037
-0.040334036
-0.039717054
-0.037885206
-0.034924211
-0.031079674
-0.02658318
-0.021760593
-0.016751731
-0.011929045
-0.0070912365
-0.0029634434
0.0013676218
0.0016354523
0.0068475112
0.0012830903
-0.0023055969
-0.0074974284
-0.013042089
-0.018894253
-0.024937747
-0.031035115
-0.0369697
-0.042388471
-0.046821632
-0.04987116
-0.051012574
-0.050308715
-0.048069299
-0.044404609
-0.039628603
-0.034098977
-0.02824123
-0.022279004
-0.016603021
-0.011071773
-0.0063383318
-0.0016947169
0.00073119831
0.0035132469
-0.00019365183
-0.0051617298
-0.010776184
-0.016929381
-0.023487932
-0.0304045
-0.037558197
-0.044670982
-0.051249801
-0.05668132
-0.060499184
-0.062079567
-0.061414678
-0.058787632
-0.054415748
-0.048637197
-0.041931837
-0.034870006
-0.027800706
-0.021152851
-0.014811483
-0.0093506719
-0.0039375537
-0.00031862851
0.0028735574
0.0067025046
0.0021728981
-0.0024402641
-0.0078562924
-0.013891049
-0.020590991
-0.027825895
-0.035612817
-0.043830376
-0.052089934
-0.059716214
-0.065987721
-0.07036616
-0.072349537
-0.07182445
-0.068938763
-0.064010357
-0.057365957
-0.049547044
-0.041264275
-0.033035959
-0.025364102
-0.018207817
-0.011963392
-0.0060511672
-0.0011881112
0.0025474667
0.0057589691
0.0005533263
-0.0041999425
-0.01012921
-0.01653543
-0.023727472
-0.031581276
-0.0401808
-0.049366258
-0.058593328
-0.067004961
-0.073861399
-0.078649929
-0.08089094
-0.080387098
-0.077382422
-0.07211747
-0.064886769
-0.056204856
-0.046878649
-0.037597101
-0.028974453
-0.021084509
-0.014179878
-0.0079590939
-0.0024416291
0.00016896995
0.0038171382
-0.0010960547
-0.005828354
-0.012025062
-0.018685635
-0.026236297
-0.034580701
-0.043834422
-0.053765698
-0.063666027
-0.072573322
-0.079986116
-0.0848353
-0.087281905
-0.086670004
-0.08366169
-0.078091184
-0.070500212
-0.061250198
-0.05117088
-0.041077171
-0.031698609
-0.023230374
-0.015816009
-0.0093512035
-0.0034702956
-0.00063430613
0.0034461095
0.0033255495
-0.002270029
-0.0070999993
-0.01333847
-0.020168613
-0.027934542
-0.036601486
-0.046272804
-0.056650369
-0.066854155
-0.076076417
-0.083565841
-0.087062708
-0.090087733
-0.090271863
-0.0872087
-0.081615042
-0.073846428
-0.064264946
-0.053722616
-0.043116114
-0.03326378
-0.024439499
-0.016791744
-0.010164237
-0.0046393039
-0.0010850188
0.0037371433
0.0014052599
-0.0019782264
-0.0078358867
-0.013986602
-0.020898936
-0.028739553
-0.037539874
-0.047381318
-0.057871011
-0.068030682
-0.077204043
-0.08443068
-0.090224431
-0.093070908
-0.091358107
-0.087990891
-0.082377139
-0.074543987
-0.0648969
-0.054245534
-0.043522211
-0.033572141
-0.024688262
-0.016955051
-0.010325721
-0.0042766684
-0.00072963986
0.0030932216
0.0027698155
-0.0025544639
-0.00787598
-0.014027963
-0.020831223
-0.028572789
-0.037226608
-0.046892206
-0.057061482
-0.06686607
-0.075574036
-0.08204056
-0.088157288
-0.092918364
-0.090210042
-0.086191373
-0.080677267
-0.072917176
-0.063394296
-0.052946322
-0.042465678
-0.032748075
-0.024038471
-0.016467024
-0.0098032914
-0.004673383
-0.00080718296
0.0034613144
0.0033844902
-0.0015408814
-0.0072900587
-0.013282998
-0.019903848
-0.027412375
-0.035682817
-0.044796532
-0.054318847
-0.063555458
-0.071774298
-0.078391007
-0.082925787