/*--------------------------------*- C++ -*----------------------------------*\
| =========                 |                                                 |
| \\      /  F ield         | OpenFOAM: The Open Source CFD Toolbox           |
|  \\    /   O peration     | Version:  2406                                  |
|   \\  /    A nd           | Website:  www.openfoam.com                      |
|    \\/     M anipulation  |                                                 |
\*---------------------------------------------------------------------------*/
FoamFile
{
    version     2.0;
    format      ascii;
    arch        "LSB;label=32;scalar=64";
    class       volScalarField;
    location    "1000";
    object      epsilon;
}
// * * * * * * * * * * * * * * * * * * * * * * * * * * * * * * * * * * * * * //

dimensions      [0 2 -3 0 0 0 0];

internalField   nonuniform List<scalar> 
150387
(
0.002496998
0.0010232401
0.00090368931
0.00085176446
0.00084706322
0.0011757674
0.0019280464
0.0036198671
0.0065035231
0.0010569472
0.00085596717
0.00080055843
0.00077933522
0.00077699074
0.0007872331
0.00079103316
0.00078359328
0.00079929071
0.00082248468
0.00096057812
0.0027573713
0.0010183805
0.00087930852
0.00085079272
0.00089384379
0.00095529005
0.0009981838
0.0010143276
0.0010048213
0.00097216729
0.00092423385
0.00087809941
0.00084840256
0.00084040682
0.0008926823
0.0010533766
0.0026175132
0.0072081506
0.0010313744
0.00088788955
0.0009399866
0.001049829
0.0011731738
0.0012893634
0.0013854196
0.0014454844
0.0014455198
0.0013706556
0.0012562537
0.001127876
0.0010111433
0.00093917773
0.00089995663
0.00090087531
0.00095006606
0.0019704216
0.0073230064
0.0010494259
0.00092149305
0.0009883747
0.0011076366
0.0012403534
0.0013751289
0.0015151842
0.0016687939
0.0017991952
0.0018744816
0.0018574106
0.0017392457
0.0015639539
0.0013540194
0.0011521388
0.0010340208
0.00096777333
0.00092898557
0.0010178835
0.0012326381
0.0010793445
0.00090656893
0.00096576038
0.0010764146
0.0012081275
0.0013613078
0.0015525036
0.0017666056
0.0019665573
0.0021147721
0.0021874018
0.0022041047
0.0021585632
0.0020433152
0.0018319308
0.001540573
0.0012667326
0.0011165211
0.001023628
0.00096195257
0.00095441274
0.0017853402
0.001235288
0.00092287609
0.00092030811
0.0010104998
0.0011423512
0.0013255041
0.0015794484
0.0018628532
0.0021218906
0.0023388383
0.002514032
0.0025917744
0.0025580933
0.0024824506
0.0024159867
0.0022966414
0.0020431831
0.0016573245
0.0013433486
0.0011730562
0.0010599821
0.00096091169
0.001074336
0.0024414429
0.0052756886
0.00096769381
0.00086661475
0.00093161109
0.0010590071
0.001262106
0.0015730228
0.0019381839
0.0022635075
0.0025072585
0.0026739288
0.00279793
0.0029409578
0.0029906983
0.0028991498
0.002744891
0.0026005455
0.0024265643
0.002108774
0.0016801229
0.0013705726
0.0011984855
0.0010601
0.0009615161
0.0010418898
0.0011095133
0.00081640242
0.00084938184
0.00095868579
0.0011498609
0.0014802777
0.0019193366
0.002317074
0.0025932751
0.0027263827
0.00267042
0.0025137531
0.0024417474
0.0025490707
0.002714255
0.0028275824
0.0027966724
0.0026585818
0.002425519
0.0020320843
0.0016195534
0.001356854
0.0011925043
0.0010019643
0.00091482488
0.0016524009
0.00084893185
0.00078377593
0.00085612084
0.0010096638
0.0013028733
0.001771909
0.0022523404
0.0025895823
0.0027440696
0.0025131865
0.0020002039
0.0015490364
0.0013086321
0.0013259724
0.001526149
0.0019802806
0.0024707968
0.0026828988
0.0025890977
0.0022853776
0.0018677352
0.0015216825
0.0013271473
0.0010995126
0.00090528142
0.0011258037
0.0022772208
0.00077147234
0.00077005053
0.00087277041
0.001095222
0.0015102609
0.002049304
0.0024792728
0.0027446882
0.0025559028
0.0018176221
0.0011190516
0.00071169716
0.00053261497
0.0005259789
0.00060555393
0.00094513858
0.0016379329
0.0023226342
0.002584769
0.0024204785
0.0020530474
0.0016714941
0.0014466779
0.0012101398
0.00093404867
0.0010113383
0.0013272508
0.00072604874
0.00076326333
0.00089752392
0.0012152435
0.0017123129
0.0022417798
0.0026368981
0.0027356113
0.0020727931
0.0011501226
0.00060671252
0.00033465297
0.00023374018
0.00023782414
0.00026806944
0.0004302331
0.00093101745
0.0017693474
0.0023979946
0.002457128
0.0021574307
0.0017821648
0.0015419892
0.0013032215
0.00096984593
0.0009017184
0.0039371791
0.0008446544
0.00070454836
0.00075783998
0.00093351813
0.0013361609
0.0018642876
0.0023872848
0.0027215147
0.0025689409
0.001635726
0.00083764364
0.00041241273
0.00017734961
0.00013095791
9.5514603e-05
0.00013370353
0.00024636589
0.00056279267
0.0013220163
0.0021486196
0.0024197026
0.0021792319
0.0018274766
0.0016037315
0.001365019
0.00099534143
0.00086743294
0.0018490314
0.00080526794
0.00068766253
0.0007557922
0.00096915802
0.0014265896
0.0019770903
0.0024853108
0.0027094419
0.0023547158
0.0014120014
0.00073663663
0.00034909616
0.0001813491
0.00057914854
7.9869176e-05
9.0875486e-05
0.00017277458
0.0003972429
0.0010517368
0.0019446268
0.0023440207
0.002132534
0.0018290003
0.0016373225
0.001376649
0.00099866276
0.00084760218
0.0017109356
0.0008093154
0.00067427638
0.00075151763
0.00099138943
0.0014580757
0.0020278983
0.0024943322
0.0026073684
0.0021714136
0.0013338956
0.00070847109
0.00035164783
0.0002063865
0.00016815771
0.00011583952
0.00011807645
0.00019338341
0.00041060198
0.0010203319
0.0019221759
0.0023020431
0.0020802746
0.0018094081
0.0016191721
0.0013284686
0.00097422587
0.00082133723
0.0018813847
0.00086250288
0.00066085218
0.00073809863
0.00097939946
0.0014113361
0.0019903918
0.0023971837
0.0024605688
0.0021382924
0.0014406938
0.00082267811
0.00046592009
0.00026473182
0.00015803564
0.00014306638
0.00019147226
0.00029453855
0.00059242978
0.0012583831
0.002056033
0.0022601119
0.0020240051
0.0017852295
0.001558905
0.0012543262
0.00093592569
0.00081000446
0.0058159209
0.0014010114
0.00067390901
0.00071933822
0.00093942488
0.0013059281
0.0018457906
0.0022285176
0.002358208
0.002198357
0.0016784153
0.0010807894
0.0006593545
0.00041990477
0.00027941033
0.00026164668
0.00033648886
0.00051484084
0.00093202586
0.0016155224
0.0021622735
0.0021782135
0.0019698668
0.0017401277
0.00147294
0.0011620729
0.00088859362
0.00089763811
0.0042141602
0.0029368328
0.00070421602
0.00069834467
0.00087617198
0.001165515
0.0016260697
0.0020294598
0.0022539797
0.0022483455
0.0019676704
0.0014875201
0.0010266017
0.00070381709
0.00052393314
0.00053071765
0.00066715675
0.00093820502
0.0013979247
0.0019154353
0.0021615245
0.0020854463
0.0019141453
0.0016522779
0.0013528068
0.0010522258
0.00083897603
0.00088449372
0.00081564159
0.00067950232
0.00080099683
0.0010302341
0.001376118
0.001778755
0.0020934164
0.0022232221
0.0021631355
0.0019179967
0.001568601
0.0012285118
0.0010172089
0.0010331146
0.0012025137
0.0014706206
0.0018059369
0.0020577786
0.0021014271
0.0020094633
0.0018160453
0.0015106291
0.0012075409
0.00093987661
0.00081997205
0.001529622
0.0011160147
0.00068532827
0.00073415248
0.00090542909
0.0011460132
0.0014753251
0.0018306784
0.0020960526
0.0021823738
0.0021368458
0.0020007552
0.0018108065
0.0016389262
0.0016153432
0.001728192
0.0018769355
0.0020154359
0.0020703093
0.0020352619
0.0019056748
0.0016346303
0.001323587
0.0010493393
0.00086311429
0.0010094525
0.002191781
0.00076815335
0.00069039704
0.00079772116
0.00097296066
0.0011847609
0.0014672954
0.0018112389
0.0020470571
0.0021286268
0.0021078375
0.0020459587
0.0019790135
0.0019558731
0.0019942291
0.0020302619
0.0020471608
0.0020215723
0.0019119058
0.0016847114
0.0014012476
0.0011314056
0.00092039985
0.00084838554
0.0013294066
0.0013747454
0.00072293875
0.00072101336
0.00083259808
0.0009836796
0.0011436981
0.001393996
0.0016931416
0.001920556
0.0020338078
0.0020434773
0.002014701
0.0020012223
0.0020207148
0.0020159455
0.0019620557
0.0018421004
0.0016610324
0.0014281912
0.0011752439
0.00096127971
0.00084419819
0.00089290102
0.003919316
0.0011348816
0.00073258413
0.00072848826
0.00083104819
0.00093925699
0.0010648582
0.0012546313
0.001486579
0.0016869534
0.0018284527
0.0019048593
0.0019317788
0.0019237177
0.001876761
0.0017730777
0.0016139623
0.0014106358
0.0011765256
0.00097170029
0.00086655902
0.0011002375
0.0024535044
0.00099806088
0.0007067375
0.00073130997
0.00079539296
0.00086572059
0.00096034858
0.0010945464
0.0012480543
0.0014008136
0.0015306818
0.0016177402
0.0016315457
0.0015734492
0.0014536307
0.001283091
0.0010881
0.00091713571
0.00082269723
0.00086301085
0.001391362
0.0014136426
0.0007728548
0.00072396597
0.00074063262
0.00078616221
0.0008412316
0.00091137713
0.00099273432
0.0010739659
0.0011381454
0.0011527666
0.0011045911
0.0010142641
0.00090824318
0.00083080146
0.00083493472
0.001097063
0.0021809112
0.00267049
0.00098772936
0.00069751957
0.0007024729
0.00072002764
0.00074301534
0.00075886439
0.00076788763
0.00077301583
0.00077487889
0.00076928755
0.00075294468
0.00074659511
0.00077947932
0.0011431023
0.0033427995
0.0035140565
0.0010746435
0.000748301
0.00073802389
0.00068798258
0.0007040951
0.00071908033
0.00073354137
0.0007979261
0.00085834174
0.0011305313
0.0019942163
0.0032331546
0.0019504075
0.001614462
0.0014739252
0.0017487355
0.0037601437
0.0030259789
0.0012362376
0.0007410408
0.0006651083
0.00067659177
0.0007734783
0.0010686915
0.0013396335
0.0025014479
0.0011331993
0.00061802247
0.00057459205
0.00055229245
0.00053648282
0.00052472318
0.00051395667
0.00050584618
0.000507279
0.00056469837
0.00077885594
0.00092013379
0.0027011344
0.0043777293
0.0022299535
0.00069528032
0.00062738007
0.0006097762
0.00060875052
0.0006127032
0.00061693004
0.0006134788
0.00059742484
0.0005697806
0.00053412097
0.00051413902
0.00050730136
0.00054812189
0.00065196051
0.0013679755
0.0012523789
0.0018943706
0.00079480641
0.00066460216
0.00062704736
0.00061840147
0.000623007
0.00063619777
0.00065426761
0.00067136249
0.00067952309
0.00067038668
0.0006338526
0.00058172394
0.00053385343
0.00051575749
0.00052858416
0.00061833058
0.00083129523
0.0015253028
0.0020493405
0.00081242605
0.0006392391
0.0005942498
0.00057983397
0.00058307248
0.0006015382
0.00062976056
0.00065907284
0.00068712966
0.000711912
0.00072958095
0.00073023481
0.00069790198
0.0006319823
0.00056203059
0.00052893819
0.0005324348
0.00058175292
0.00076596057
0.0013256555
0.003046407
0.00087019807
0.00062068792
0.00055684435
0.00053558724
0.00053997616
0.00056360739
0.0006009789
0.00063397924
0.00065612216
0.00067216202
0.00068957343
0.00071283412
0.00073992888
0.00075364431
0.00073304985
0.00066336332
0.00057917443
0.00053936166
0.00054275089
0.00058297884
0.0007408218
0.0012842126
0.0013411719
0.00065082723
0.00052863414
0.00050099845
0.00050503668
0.00053952586
0.00060084303
0.00064801848
0.00066817222
0.00066861908
0.00066432774
0.00066420993
0.00067329466
0.00069916935
0.00073589456
0.0007604461
0.00074264571
0.00067114752
0.00058498456
0.00054907818
0.00055328054
0.00059602024
0.00066172019
0.0016978777
0.0016185485
0.00066898926
0.0005154961
0.00047689115
0.00047863171
0.00052021875
0.00060831173
0.00067424185
0.00068466003
0.0006539261
0.00059110736
0.00053003498
0.00049869605
0.00050332582
0.0005415174
0.00060931256
0.00069407553
0.00074229081
0.00072844551
0.00065623136
0.00058107385
0.00055762417
0.00056148911
0.00057690676
0.00077218453
0.0009227185
0.00053628331
0.00045972884
0.00045441085
0.00049257981
0.00059668809
0.00068962731
0.00069750404
0.00062669058
0.00049478394
0.00036594299
0.00027569196
0.00023222659
0.00024153587
0.00029882772
0.00039585323
0.00052422559
0.00065905011
0.00071885216
0.00069905103
0.00062937833
0.00057687998
0.00056241225
0.00055223963
0.0005802865
0.0014582646
0.004888114
0.00077531631
0.00045331504
0.00043240456
0.00045676974
0.00055443601
0.00068040512
0.00071905032
0.00063520233
0.00045579511
0.00027774963
0.0001506986
8.2513284e-05
5.5115438e-05
6.1221236e-05
0.00010135035
0.00018960675
0.00032758897
0.0005047143
0.00065904265
0.00069971919
0.0006641467
0.00060800166
0.00057527275
0.00055157014
0.00053659744
0.00072526427
0.0017481482
0.00053178845
0.00042611019
0.00042810913
0.00049059039
0.00062602173
0.00072392992
0.00068568282
0.00049897415
0.00027969359
0.00012265057
4.0986162e-05
1.714501e-05
1.4799816e-05
1.4646952e-05
2.0839954e-05
6.2668557e-05
0.00017200057
0.00034919357
0.00055315699
0.00067379211
0.00067690771
0.00063618965
0.00059649074
0.00055971767
0.00051320986
0.0005875294
0.0028789132
0.00044303822
0.00040848456
0.00043254676
0.00053494568
0.00067748934
0.00073264446
0.00061159123
0.00037219208
0.00016190203
4.9419697e-05
1.2369522e-05
1.246054e-05
1.2973474e-05
1.2190938e-05
1.1748434e-05
1.5751474e-05
7.7970402e-05
0.00023234264
0.00044992529
0.00062724329
0.00067221873
0.00065430807
0.00061873448
0.00057314209
0.00050511906
0.00051654446
0.0037582217
0.00089668173
0.0004132438
0.00040360702
0.00044611937
0.00056844669
0.00070254307
0.00071673232
0.00054228986
0.00028754254
0.00010360655
2.6686159e-05
1.178641e-05
1.4013045e-05
3.3888267e-05
2.7084378e-05
1.279749e-05
1.2314457e-05
3.7741139e-05
0.00016247675
0.00037680086
0.00058202872
0.00066342691
0.00066386388
0.00063728031
0.00058667386
0.00050266855
0.00047629767
0.0017863786
0.0006313672
0.00038965141
0.00040330127
0.00045632572
0.00058362843
0.00070672162
0.00069567733
0.00050501444
0.0002531434
8.6954422e-05
2.2242782e-05
1.1459484e-05
1.7009086e-05
0.00023387775
5.233681e-05
1.1630014e-05
1.1550528e-05
2.94381e-05
0.0001369189
0.00034459624
0.0005550913
0.00065619128
0.00067075595
0.00065172681
0.00059174241
0.0004913999
0.00050720265
0.0017442649
0.00060678814
0.00038535664
0.00040330166
0.00045572267
0.00058118437
0.00069773909
0.00068561841
0.0005057793
0.00026496168
9.9419938e-05
2.5678245e-05
1.1563581e-05
1.363048e-05
3.5689385e-05
1.6251495e-05
1.0513036e-05
1.12252e-05
3.786265e-05
0.0001505698
0.00035226119
0.00055038391
0.00065525124
0.00067911832
0.00065993206
0.00058487121
0.00048176406
0.00046754926
0.001860217
0.00060242998
0.00038534701
0.00039949884
0.00044505561
0.00056233822
0.00067798907
0.00068602221
0.00054243047
0.0003172518
0.00014152639
4.7563286e-05
1.3543315e-05
9.7955402e-06
9.680215e-06
9.805671e-06
1.0179441e-05
1.6973589e-05
6.9929061e-05
0.00020053067
0.00039210356
0.0005673974
0.00066501954
0.0006888368
0.00065707378
0.00056436299
0.00046368434
0.00042616588
0.002606316
0.00082080591
0.00039252954
0.0003945739
0.00042734895
0.00052873933
0.00064684824
0.00068971939
0.00060028732
0.00040425053
0.00021918262
0.00010227953
4.1626007e-05
1.8632188e-05
1.333858e-05
1.3601436e-05
2.0234054e-05
5.4606074e-05
0.00013970477
0.00028165907
0.00045573492
0.00060413378
0.0006853882
0.00069318672
0.000635825
0.00052407539
0.00043890873
0.00049908013
0.0012042335
0.0004087318
0.00039113816
0.00040757031
0.00048500449
0.00060228937
0.00068419064
0.00065756505
0.00051656184
0.00033758457
0.00020102587
0.0001163887
7.04734e-05
5.2301004e-05
5.5584899e-05
8.2402824e-05
0.00014394792
0.00024699796
0.00038755251
0.00053803709
0.00065455818
0.00070289415
0.00067746789
0.00058792452
0.00048356015
0.00048771153
0.00064489527
0.00044277154
0.00039265552
0.00039093012
0.00043770091
0.00054013203
0.0006473504
0.00068514161
0.00062604929
0.00048638042
0.00034835561
0.00024956247
0.00018958746
0.00016364338
0.00016965115
0.00020821368
0.00028105754
0.00038669987
0.00051200744
0.00062802638
0.00069583893
0.00069626343
0.00062970156
0.00052624729
0.00046203547
0.00054715402
0.00097128838
0.00049830962
0.0004125031
0.00038392851
0.00039789817
0.00047034779
0.00058179967
0.00066836854
0.00068517121
0.00062662652
0.00052136804
0.00042829653
0.00036594774
0.00033747482
0.0003430975
0.00038274542
0.00045174174
0.00054088038
0.00063008396
0.0006881905
0.0006994333
0.00065058473
0.00055941807
0.00047220936
0.00044927803
0.00066972373
0.0033106747
0.0018840769
0.00047074555
0.00040451953
0.00037817908
0.00040614495
0.00049361052
0.0005995293
0.00067530758
0.00069484022
0.00066236062
0.00060508235
0.00055676872
0.00053303293
0.00053614209
0.00056451775
0.00061066127
0.00066031232
0.00069237543
0.00069311237
0.00065075134
0.0005671611
0.00047960611
0.00043627533
0.00080324495
0.0014610732
0.00071987978
0.0004921319
0.00038495059
0.00037289047
0.00040912744
0.00049584044
0.00058994549
0.00066395717
0.00069868142
0.00070143827
0.000687234
0.00067424467
0.00067241431
0.00068034997
0.00069105067
0.00069423348
0.00067487384
0.00062759749
0.00055234341
0.00047299284
0.00043138534
0.00049955744
0.00056105088
0.00086444149
0.00047795527
0.00037524623
0.00036387911
0.00039915856
0.00047081693
0.00054914251
0.00061819239
0.00066333089
0.00068711509
0.00069451379
0.00069224444
0.00068276045
0.00066415832
0.00063133845
0.0005798261
0.00051513011
0.00045150924
0.00041914894
0.00047389009
0.0005411508
0.0014005779
0.00086089442
0.00048737968
0.00037622876
0.00035132652
0.00037324477
0.0004189713
0.00048069486
0.00052995453
0.00056607636
0.00058539059
0.00058763918
0.00057416468
0.00054594847
0.00050539382
0.00045846553
0.0004180451
0.00040149267
0.00046400243
0.00052502289
0.0012239686
0.0010569828
0.0007736238
0.00036751161
0.00034216133
0.00033977189
0.00036055906
0.00039178353
0.00041964016
0.00043663879
0.0004411616
0.00043227754
0.00041314457
0.00039120289
0.00037783334
0.00038212428
0.00042472631
0.0005489989
0.0012147892
0.0014142815
0.00058948233
0.0004650702
0.00039328403
0.00031590547
0.00031433011
0.00032084919
0.00032734508
0.00033025596
0.00033201736
0.00033969179
0.00035028458
0.00037881518
0.00040969383
0.0006569039
0.0012114255
0.0015649557
0.00049875126
0.00036847298
0.00029713818
0.00030297514
0.00031496529
0.00033329681
0.00036519362
0.00042564741
0.00068614587
0.001919789
0.0040090071
0.0015962596
0.0013898925
0.0013054137
0.001645508
0.0032416077
0.0015714611
0.0010508237
0.00097121828
0.0010441683
0.0012056243
0.00151603
0.0020457264
0.0033333
0.0012790055
0.00075146514
0.00070396041
0.0006838855
0.00067506168
0.00067447789
0.00068086004
0.00070530435
0.00075309828
0.00087929429
0.0011690634
0.0012710006
0.0032433263
0.0048236811
0.0026191375
0.00084066758
0.0007779685
0.00076853314
0.00077421062
0.0007776601
0.00077430502
0.00075979593
0.00073329719
0.0007028256
0.00067554945
0.00066873022
0.00072868469
0.00080941771
0.00094876253
0.0017748486
0.0016394202
0.0022303654
0.0010558694
0.00088196691
0.00083627702
0.00082376728
0.00081557547
0.00080757365
0.00080096135
0.00079460609
0.00078314047
0.00076034845
0.00072400407
0.00068059884
0.00065050322
0.00067242789
0.00070272277
0.00091878346
0.0011810305
0.001971607
0.002502232
0.0011141966
0.00088347676
0.00082077105
0.00079374848
0.00076931289
0.00074944568
0.00073868935
0.0007379902
0.0007455387
0.00075789373
0.00076628486
0.00076037567
0.00073397711
0.00068816671
0.0006589489
0.00065509461
0.00069480979
0.0007966747
0.0010641977
0.0017340148
0.0037424121
0.0012107892
0.00089155286
0.00079037172
0.00073798562
0.00069512048
0.00066525848
0.00065502195
0.00065651922
0.00066059411
0.00066686684
0.00067977807
0.00070170085
0.00072902832
0.0007452848
0.00073051635
0.00069369058
0.00066626152
0.00065943553
0.00069324122
0.00077503835
0.0010071546
0.0016086278
0.0017162559
0.00098206888
0.00077192989
0.00068870946
0.00063462817
0.00060865974
0.00061468475
0.00062357874
0.00062294317
0.00060888629
0.00058873904
0.00057725751
0.00058567887
0.00061819885
0.00066839695
0.00071363837
0.0007171979
0.00069318042
0.00067170487
0.00067938408
0.00070574946
0.00078162869
0.00083421974
0.0020253847
0.001926973
0.00099871027
0.00076888885
0.00066800235
0.00060112115
0.00057734079
0.00059543943
0.00061812027
0.00060898352
0.00055759124
0.00049322828
0.00043949628
0.00041183874
0.00041436849
0.00044943157
0.00051742467
0.00060632804
0.00068094053
0.00070147268
0.00068952474
0.00068672727
0.00070189785
0.00072418887
0.00072801942
0.00094990376
0.0012763451
0.00085816514
0.00068317298
0.00058491919
0.00055632147
0.00058485597
0.00062470288
0.00061207668
0.00052775144
0.00041491371
0.00031110567
0.00023756179
0.00020075217
0.00020384844
0.00024522702
0.00032473554
0.00044112691
0.00057146069
0.00066620976
0.0006924063
0.00069475593
0.00071058003
0.00072287968
0.0007001404
0.00072155236
0.0016251129
0.0064254323
0.0011849399
0.00074676074
0.00058868919
0.00054027763
0.00056814288
0.00062369888
0.0006307476
0.00053688331
0.00038854861
0.00024553937
0.00014157239
8.0333773e-05
5.5192349e-05
5.8509144e-05
8.9826096e-05
0.00015853111
0.00027320353
0.00042990472
0.00058180563
0.00067134181
0.00069778184
0.00071840597
0.00073469521
0.00070561375
0.00066086892
0.00088405774
0.0025484847
0.00090102049
0.00064268302
0.00054624125
0.00054608964
0.00060398537
0.00064896595
0.00058731931
0.00043041913
0.00025456109
0.00012203561
4.5639291e-05
1.6796552e-05
1.3174372e-05
1.3116799e-05
2.0915207e-05
5.658063e-05
0.00014692992
0.00029929293
0.00048271148
0.00062389854
0.00068983833
0.00072385503
0.00074729028
0.00072035548
0.00063320481
0.00071286118
0.0039424369
0.00076291861
0.00058537816
0.00053208011
0.00056731851
0.00063289151
0.0006433426
0.00052919944
0.0003373603
0.00016459571
5.6632782e-05
1.3973932e-05
9.9198032e-06
1.0243831e-05
9.5851668e-06
9.2126008e-06
1.60558e-05
7.0768422e-05
0.00020415536
0.00039638755
0.00057177832
0.00067488629
0.00072699597
0.00075854457
0.00073396758
0.00062521344
0.00061239986
0.003651264
0.0013891549
0.00068340603
0.00055060435
0.00053496333
0.00058874016
0.00064712602
0.00062662095
0.00048200905
0.00027974399
0.00011810748
3.0902363e-05
9.1715104e-06
1.0504751e-05
3.2320334e-05
2.5984796e-05
1.095588e-05
1.0288442e-05
3.6999781e-05
0.00014854802
0.00033853384
0.00053234515
0.00065951076
0.00073000201
0.00076799318
0.00074277835
0.00062035692
0.00055712099
0.0018826051
0.001041752
0.00061360233
0.0005358594
0.00054270141
0.00060036889
0.00065029317
0.00061696433
0.00046241241
0.00026087084
0.00010478636
2.4156416e-05
9.1143161e-06
1.3914418e-05
0.00025094114
6.4492614e-05
1.0041179e-05
9.7950022e-06
2.9891086e-05
0.00013032393
0.00031604593
0.00051488925
0.00065292503
0.00073800045
0.00077642854
0.00073885721
0.00060267725
0.00060044098
0.0018717578
0.0010085799
0.00057400377
0.00053583559
0.00054528281
0.00060095369
0.00064851122
0.0006191491
0.00047246772
0.00027780379
0.00012003169
3.1434706e-05
9.2801628e-06
1.0358768e-05
3.5533503e-05
1.5024574e-05
9.2045475e-06
9.6278302e-06
3.9719981e-05
0.00014666014
0.00032917906
0.00052205978
0.00066238224
0.00075247942
0.00078033562
0.00071768645
0.00057771931
0.00053633569
0.0019715497
0.00096511338
0.00055014096
0.00052944189
0.00054021344
0.00059223705
0.00064326858
0.00063261806
0.00050937789
0.0003279263
0.00016626189
6.114071e-05
1.5490828e-05
7.9778398e-06
8.0073484e-06
8.2261102e-06
8.3768982e-06
1.8598982e-05
7.407698e-05
0.00019683277
0.00037475439
0.00055460996
0.00068928159
0.0007700318
0.00077223696
0.00067748183
0.00054162917
0.00048732501
0.0024080215
0.0012880915
0.00054680728
0.00052067015
0.00052843241
0.00057508845
0.00063261983
0.00065063407
0.00056348191
0.00040633725
0.00024573819
0.00012632745
5.3431466e-05
2.2232599e-05
1.3975985e-05
1.4040309e-05
2.3630248e-05
6.1620271e-05
0.00014573772
0.00027990954
0.00044891211
0.00061038442
0.00072743782
0.00077904602
0.00073837715
0.00060832309
0.00050865601
0.00063886605
0.0016922316
0.00055700413
0.00051105401
0.00051135639
0.00054783155
0.00061048607
0.00065671709
0.00062089391
0.00050335037
0.0003573752
0.00023191152
0.00014263699
8.8559724e-05
6.5297809e-05
6.7700701e-05
9.5989465e-05
0.00015758219
0.00025731184
0.00039347703
0.00054597449
0.00067918183
0.00075952121
0.00076013013
0.00067254254
0.00055149882
0.0005794029
0.00076538061
0.00059691437
0.00050841179
0.00049385735
0.00051280018
0.00057356986
0.00064247171
0.0006615044
0.00059880871
0.00048778693
0.00037364969
0.00028235399
0.00022150235
0.00019247365
0.00019581007
0.00023230005
0.00030230794
0.00040409286
0.0005273283
0.00064836235
0.00073525175
0.0007588598
0.00070572948
0.00059742977
0.00052216132
0.00061977303
0.00096816203
0.00063258039
0.00053038947
0.00048832481
0.0004753311
0.00052289301
0.00060153508
0.0006611451
0.0006644483
0.00060701043
0.00052612025
0.00045092138
0.0003967533
0.00037049501
0.00037507621
0.00041144065
0.00047601794
0.00056131373
0.00065140833
0.00072253749
0.00074792018
0.00071064721
0.00061603411
0.00051086316
0.00050278494
0.00076455342
0.0030250927
0.0019434167
0.00061297904
0.00052633991
0.00045035865
0.00046572449
0.00053588348
0.00061827323
0.00067005029
0.00067695688
0.00064492124
0.00060324066
0.00056883386
0.00055249501
0.00055802111
0.00058535201
0.00062972741
0.0006805606
0.00072119248
0.00073070665
0.00069389991
0.00060982679
0.00051566447
0.00052153424
0.00092244071
0.001481751
0.00088841421
0.00068017124
0.00047829877
0.00042502016
0.00045993561
0.00053907478
0.00061594027
0.00066756368
0.0006879985
0.00068507353
0.00067619916
0.00067236945
0.00067740676
0.0006905011
0.0007064213
0.00071555905
0.00070429323
0.00066271686
0.00058843584
0.00050491393
0.00047655026
0.00061601253
0.0006714754
0.0011107598
0.00065615608
0.00045363699
0.00041413055
0.00044709091
0.000520455
0.00058921376
0.00064183418
0.0006707135
0.00068477762
0.00069132456
0.00069406288
0.00069281532
0.00068237407
0.00065717932
0.00061151604
0.00054713619
0.00048273638
0.00046166066
0.00056965545
0.00066875526
0.0016213537
0.0011417316
0.0006668872
0.00049009808
0.0003902599
0.00042409065
0.00047569457
0.00053504647
0.00058087401
0.00060692384
0.00061871981
0.0006185172
0.00060672577
0.00058177419
0.00054407054
0.00049824773
0.00045954633
0.00046071742
0.00055406108
0.00062854536
0.0014503921
0.0013744815
0.0010009874
0.00045468947
0.00040039437
0.00039735744
0.00041190663
0.00045866324
0.00048822233
0.00050304315
0.00050406111
0.00049203533
0.00047007186
0.00044570184
0.0004302582
0.00044236316
0.00050445776
0.00067808585
0.0014823696
0.0017587602
0.00073630673
0.00056846401
0.00049950015
0.00037717482
0.00037158316
0.00038254622
0.00039317931
0.0003962928
0.00039489977
0.00039706158
0.00041232063
0.00044651945
0.00047631734
0.00080170256
0.0013276215
0.0018484279
0.00063065034
0.0004779541
0.00035517433
0.00035155539
0.00036007664
0.00037987576
0.00042742607
0.00050293284
0.00077759206
0.0019752757
0.0042354879
0.0017449803
0.0015459558
0.0014419114
0.0015661528
0.0046510932
0.0024738201
0.0017140716
0.0015815329
0.0016379196
0.0017743585
0.0020763734
0.0025940882
0.0040378313
0.0014591541
0.001004841
0.00097022403
0.00096941085
0.00097354091
0.00099520195
0.0010368579
0.0011066206
0.0011939947
0.0013229468
0.0015834835
0.0016429827
0.0036863114
0.0054887709
0.0028973084
0.00099447097
0.00096736479
0.00098414779
0.0010011795
0.0010043673
0.00099363061
0.00097164771
0.00094703117
0.00093807082
0.00095814205
0.001010028
0.0011033755
0.0011992333
0.0012944002
0.0020866465
0.0020434185
0.0026103395
0.0012512938
0.0011107599
0.0010960113
0.001095199
0.0010813134
0.0010561038
0.0010271929
0.00099696358
0.00096335471
0.00092661255
0.00089626651
0.00088889259
0.00091605012
0.0010002139
0.0010596332
0.0012401771
0.0014758653
0.0023575448
0.0029722682
0.0013684553
0.0011768026
0.0011450351
0.0011201111
0.0010741338
0.0010200815
0.00097246285
0.00093894783
0.00091835272
0.00090909107
0.00090135206
0.00088540453
0.00086370038
0.00085020596
0.00088336016
0.00095229846
0.0010217103
0.0011061575
0.001328978
0.0020422046
0.0046524427
0.0015022195
0.0012282143
0.0011551245
0.0010871907
0.00099623064
0.00090652537
0.00083773763
0.00079255392
0.00076660469
0.0007552032
0.00076128381
0.00078266045
0.00080960731
0.00082709757
0.00082678202
0.00082956822
0.00087351576
0.00094093508
0.0010076803
0.0010640744
0.0012410507
0.0019228909
0.0019957675
0.0013252724
0.0011544998
0.001042629
0.00091644249
0.00080847028
0.0007376628
0.00069684054
0.00066663982
0.00063956305
0.00061806509
0.00060970634
0.00062297195
0.00066214057
0.00071796601
0.00076748513
0.00079354095
0.00082192627
0.00088210068
0.00096334356
0.0010067968
0.0010383743
0.00099073482
0.0026000331
0.0022641498
0.0013547918
0.0011710983
0.0010335676
0.00087434548
0.00075261759
0.00069106599
0.00066145289
0.00062681191
0.00057405584
0.00051465523
0.00046604699
0.0004409944
0.0004441285
0.00048014611
0.00055088307
0.00064272923
0.0007231091
0.00077644821
0.00083335305
0.00092046263
0.00099134288
0.00099991318
0.00091743283
0.0011559048
0.0016305986
0.0012798362
0.0010777305
0.000875826
0.00073252784
0.00067605012
0.00066075674
0.00062506002
0.00054664365
0.00044605071
0.00035208159
0.00028381918
0.00024944223
0.00025123415
0.00028835147
0.00036335212
0.0004765508
0.00060495607
0.00070966699
0.00078754152
0.00087826359
0.00097349898
0.0010023799
0.00091190853
0.00085193801
0.0018879349
0.0074659902
0.0015896793
0.0011812639
0.0009273564
0.00074544461
0.00067467173
0.00067061753
0.00064793316
0.00056054558
0.00042957717
0.00029778807
0.00019403008
0.00012800878
9.7406535e-05
9.932597e-05
0.00013266172
0.00020127216
0.00031400048
0.00046602854
0.00061777413
0.00073508722
0.00083868879
0.0009512112
0.001006711
0.0009293843
0.00079240371
0.001029983
0.003164567
0.0013650837
0.001057753
0.00080961825
0.00068730564
0.00067532588
0.00067817781
0.00061261046
0.0004746469
0.00031473129
0.00017834582
8.5513515e-05
3.8824526e-05
2.330835e-05
2.5069601e-05
4.2831339e-05
9.2551399e-05
0.00018865005
0.00034050983
0.00052019906
0.00067651722
0.00080310033
0.00092981537
0.0010059251
0.00094655586
0.00076414674
0.0008265071
0.0048214887
0.0012493284
0.00094425463
0.00073031945
0.00067647269
0.00069154427
0.00067340449
0.00056737643
0.00039961236
0.00023101383
0.00010083128
3.009545e-05
1.2466964e-05
1.1428812e-05
1.0732431e-05
1.1889656e-05
3.550085e-05
0.00010898425
0.00024846789
0.00043856247
0.00062295923
0.00077381959
0.00091398781
0.0010026078
0.00095481059
0.00075426661
0.000711311
0.0039664915
0.0019741752
0.0011521535
0.00084651047
0.0006960477
0.00068922326
0.00070364972
0.00066366092
0.00053376373
0.00035286904
0.00018194074
5.8597513e-05
1.3093651e-05
1.1253503e-05
3.1279791e-05
2.5290424e-05
1.1111577e-05
1.5478859e-05
6.7448718e-05
0.0001944598
0.00038612143
0.0005866068
0.00075675344
0.00090682716
0.00099871159
0.00095137425
0.00073888188
0.00064265303
0.0019786734