/*--------------------------------*- C++ -*----------------------------------*\
| =========                 |                                                 |
| \\      /  F ield         | OpenFOAM: The Open Source CFD Toolbox           |
|  \\    /   O peration     | Version:  2406                                  |
|   \\  /    A nd           | Website:  www.openfoam.com                      |
|    \\/     M anipulation  |                                                 |
\*---------------------------------------------------------------------------*/
FoamFile
{
    version     2.0;
    format      ascii;
    arch        "LSB;label=32;scalar=64";
    class       volScalarField;
    location    "1000";
    object      k;
}
// * * * * * * * * * * * * * * * * * * * * * * * * * * * * * * * * * * * * * //

dimensions      [0 2 -2 0 0 0 0];

internalField   nonuniform List<scalar> 
150387
(
0.00052168997
0.00035845556
0.00034877743
0.00034702052
0.00035313334
0.0003858498
0.00042914073
0.00055072712
0.00053705813
0.00034477436
0.00033482329
0.00034138539
0.00035283499
0.00036257922
0.0003683692
0.00036984108
0.00037028182
0.0003701368
0.00036977298
0.00037242089
0.00041483827
0.00032426531
0.00033124773
0.00036416076
0.00041676191
0.00046523036
0.00049127093
0.00049791109
0.00049357941
0.00047711102
0.00044545146
0.00041722824
0.00040349286
0.00039574774
0.00038800343
0.00037290704
0.00039599678
0.00054968578
0.00035011471
0.00037037196
0.00044180784
0.00051913442
0.00057556854
0.00061329986
0.00063478767
0.00064221783
0.00063714743
0.00061228226
0.0005733646
0.0005211864
0.00046440343
0.00043836758
0.00042502056
0.00040902202
0.00037751355
0.0003666496
0.00049118261
0.00034183224
0.0003997953
0.00049031966
0.00055620051
0.00059892783
0.00062781335
0.0006501151
0.00066937342
0.00068426408
0.00069575617
0.00069581302
0.00067605925
0.0006342423
0.00057261973
0.00049926933
0.00046844645
0.00045103915
0.00042434017
0.00037768017
0.00033531177
0.00036955749
0.00041658626
0.00048342319
0.00053032215
0.00056098627
0.00058469897
0.00060232754
0.00061359774
0.00061901303
0.00062291974
0.00063337779
0.00065268158
0.00067023081
0.00067401379
0.00065774981
0.00059626554
0.00052200715
0.00049386372
0.00047232394
0.00043420952
0.0003593574
0.00036180362
0.00036599319
0.00040495957
0.00045683248
0.00049269576
0.00052144544
0.00054887107
0.00057057674
0.00057826036
0.00057489751
0.00056752787
0.00056153223
0.00055952512
0.00056376635
0.00058018628
0.0006135748
0.00064472444
0.00064753896
0.0005946987
0.00053992781
0.0005151774
0.00048878593
0.00041538854
0.0003556534
0.00039108828
0.00046566783
0.00039284488
0.00042626155
0.0004562345
0.00048580138
0.00052047395
0.00055591445
0.00057065164
0.00056311565
0.00054899012
0.00054090991
0.00054094793
0.00054993095
0.00055518223
0.00055329841
0.00055889424
0.00058170502
0.0006107709
0.00061793357
0.00058339918
0.0005537595
0.00053242024
0.00048067776
0.00038666586
0.00034238742
0.00038563805
0.00039668824
0.00042133579
0.00045030464
0.00049054196
0.000541224
0.00057707599
0.00056955687
0.00055142697
0.00054211618
0.00053079216
0.00051156336
0.00049976197
0.00050970507
0.00052855448
0.00054261778
0.00055101836
0.00056824005
0.00058761733
0.00059013085
0.00057907405
0.00056705447
0.00054130734
0.00043281095
0.00035099635
0.00042971553
0.00036987241
0.0003881596
0.00041470315
0.00045494215
0.00051181401
0.00057999857
0.00058534425
0.0005583821
0.00054384472
0.00051000417
0.00043921105
0.00036331696
0.00031655189
0.00031952674
0.00035990768
0.00043632052
0.00050522663
0.00053971141
0.00055597945
0.00056908475
0.0005810582
0.0005887834
0.00058544735
0.00049382648
0.00037135347
0.0003684039
0.00050361349
0.00036125704
0.00038021256
0.00041553029
0.0004712924
0.00055608059
0.00060349939
0.00057197122
0.00054625491
0.00051033731
0.00040685629
0.00027900359
0.0001917299
0.00015549241
0.00015737513
0.00017423614
0.0002442636
0.00038495953
0.00049202803
0.00053182159
0.00054332719
0.00056766584
0.00059758662
0.00061357859
0.00055108509
0.0003985107
0.00035380776
0.00039645724
0.00035154692
0.00037570003
0.00042247378
0.00050224875
0.00059925079
0.00060271339
0.00055656612
0.00052928232
0.0004418214
0.00028632359
0.000172971
0.00011257365
8.7298765e-05
9.0962409e-05
9.8375913e-05
0.00013110386
0.00023875755
0.00041055064
0.00050388861
0.00052268212
0.00054877817
0.00059864467
0.00063304943
0.0005921422
0.00043096647
0.00034816611
0.00061782758
0.00036309695
0.00034127013
0.00037372068
0.00043422564
0.00053974988
0.00061705107
0.00059705954
0.0005412333
0.00050483047
0.00037324594
0.00022503493
0.00013369684
7.1913932e-05
6.0136036e-05
5.0396841e-05
6.2053192e-05
9.1141302e-05
0.00015885483
0.00032572648
0.0004700994
0.00050523744
0.00052993041
0.00059900094
0.0006493102
0.00061828782
0.00046101935
0.0003492764
0.00047479196
0.00034183157
0.000332239
0.00037172338
0.00044566327
0.00056761992
0.00062674166
0.00059281935
0.00052749398
0.00047772483
0.0003340891
0.00020273856
0.00011787065
7.0908284e-05
0.00013210393
5.1930081e-05
4.9154167e-05
7.3516159e-05
0.00012589281
0.00027368219
0.00043899268
0.00048884125
0.00051610661
0.00060130687
0.00066086954
0.00062616467
0.00047291786
0.00035087552
0.00042565561
0.00033604237
0.00032381897
0.00036664846
0.0004510296
0.00058037026
0.00063290126
0.00058985181
0.00051783184
0.00045597598
0.00032082955
0.00019606613
0.00011723691
7.8533329e-05
7.9210865e-05
5.2197793e-05
5.8197327e-05
7.7742704e-05
0.00012869371
0.0002685093
0.00042962052
0.00047923928
0.00051325536
0.00060543395
0.00066072654
0.00061134269
0.00046213273
0.00034721343
0.0004441821
0.00033671724
0.0003162577
0.00035781722
0.00044567839
0.00057744164
0.00063800557
0.00059154441
0.00051620914
0.00045646146
0.000341371
0.00022099553
0.00014275857
9.6286827e-05
6.8439455e-05
6.5081119e-05
7.796105e-05
0.00010162181
0.00017142267
0.0003159411
0.00044230128
0.00047857734
0.00052507575
0.00061736968
0.00065464307
0.00058506094
0.00043497901
0.00034574045
0.0005427216
0.00037677542
0.00031195331
0.00034768316
0.00043230098
0.00056093521
0.00063974778
0.00060215172
0.00052990178
0.00047324451
0.00038341033
0.00027507254
0.00018633472
0.00013152703
9.8678341e-05
9.5027087e-05
0.00011114334
0.0001522673
0.00025041644
0.00037961811
0.00045573157
0.00048974251
0.00055532738
0.00063402212
0.0006428747
0.00054793614
0.00040086597
0.00033892221
0.00061237181
0.00051063803
0.0003066271
0.00033474601
0.00040962072
0.00052737123
0.00062387894
0.00061626342
0.00055818191
0.00049961869
0.00043301313
0.00034945462
0.00026605373
0.00019818722
0.00015805691
0.00015938881
0.00018854402
0.00025082973
0.00034367872
0.00042426963
0.00047066622
0.00051767353
0.00059967576
0.00064641486
0.00061351241
0.00049285409
0.00037311447
0.00033562089
0.00030643658
0.00031748121
0.00038017451
0.00048199606
0.0005807421
0.00062254876
0.00059415697
0.00053699301
0.00047950835
0.00041971501
0.00036087201
0.00030345119
0.00026784597
0.00027309217
0.00030539419
0.00035501705
0.00041020223
0.00045690639
0.00050197898
0.00056756733
0.00063764619
0.00064324418
0.00056189843
0.00042790502
0.00035316622
0.00034640425
0.00034464564
0.00029879029
0.00034942833
0.0004365347
0.00051672186
0.00059498832
0.00061789001
0.0005903132
0.00053142282
0.00047540329
0.00043065381
0.0003983295
0.00037598347
0.00037671425
0.00039677201
0.00042496166
0.00045934341
0.00049991123
0.00055605047
0.00062488717
0.00064999391
0.00060011665
0.00048379171
0.00038502611
0.00033645945
0.00044484818
0.00028504156
0.00031955085
0.00038910984
0.00046231276
0.00052573483
0.0005895553
0.00062668776
0.00060495572
0.00054689221
0.0004913554
0.00045605775
0.00044045284
0.00044137051
0.0004566051
0.00048059638
0.00051589107
0.00056620908
0.00062027906
0.00064631537
0.00061901729
0.00052129103
0.00041239943
0.00034725056
0.00033090688
0.00033119959
0.00029809818
0.00033994326
0.00040872378
0.00046495308
0.00051051
0.00057940842
0.00063105983
0.00063158853
0.00060110475
0.00055564842
0.00052798386
0.0005242353
0.00053755358
0.00056410806
0.0005979534
0.00062905537
0.00064641311
0.00062491128
0.00053699873
0.00042956984
0.00035887568
0.00031164675
0.00044023014
0.00032874467
0.00029663081
0.00035558514
0.00040659035
0.0004458691
0.00048786826
0.00055380042
0.00061289088
0.00064483918
0.00065329424
0.00065588616
0.00065611437
0.00065608633
0.00066219512
0.00066873329
0.00066400868
0.00062457023
0.00053702731
0.00043178131
0.00036050369
0.00031350623
0.0003534885
0.00027790566
0.00031076931
0.00035059346
0.00038846329
0.00041580754
0.00045082789
0.00050914858
0.00056530202
0.00061463063
0.00065420925
0.00068026686
0.00068451433
0.00067139157
0.00064154997
0.00058387369
0.00049362289
0.00039583628
0.00033538641
0.00029568078
0.00030177097
0.00030185345
0.00030423978
0.00033778868
0.00036042906
0.00037929226
0.00040199138
0.00043483704
0.00047433593
0.00051124107
0.00053706114
0.0005380692
0.00051142138
0.00046165544
0.0003960005
0.00034487189
0.00031507111
0.00030364041
0.00035557754
0.0003399192
0.00031021752
0.00032020105
0.00032770518
0.00033787347
0.00034939911
0.00036064324
0.00036992262
0.00037172142
0.00036203827
0.00034494475
0.00032610656
0.00030755943
0.00029290075
0.00030235803
0.00040150984
0.00039029772
0.00033593247
0.00030854161
0.00031259186
0.00031148219
0.00030856808
0.00030695862
0.00030450167
0.00030609419
0.00031168035
0.0003242924
0.00042022503
0.00054121638
0.00045762939
0.0004095674
0.00039324212
0.00047758836
0.00056357994
0.00050089274
0.00049485033
0.00045894446
0.00042351894
0.00042454322
0.00044746034
0.00050889395
0.00061487428
0.00066562314
0.00044382182
0.00044972938
0.00047867503
0.0005067057
0.00052740189
0.00053328946
0.00052475337
0.00050679747
0.00049215867
0.00049770037
0.0005117206
0.00054672558
0.00056086518
0.00064489685
0.00044640104
0.00046880208
0.00053115746
0.00059374278
0.00064974066
0.00069199961
0.00071857053
0.00072544224
0.00071100729
0.00067575933
0.00062575084
0.00057748567
0.00054209614
0.00053375617
0.00053565709
0.0005233151
0.00051260422
0.00047218839
0.00049585537
0.00057514508
0.00065399086
0.00071592657
0.00076079026
0.00079295933
0.00081700066
0.00083305245
0.00083703401
0.00082190113
0.00078205258
0.00072049585
0.00065151947
0.00059608559
0.00057425078
0.00054880801
0.00050666725
0.00047462685
0.00049735854
0.000515025
0.00059796543
0.00067080228
0.00071771253
0.00074602418
0.00076532546
0.0007808583
0.00079553558
0.00081333908
0.00083501104
0.00085509851
0.00086008082
0.00083479016
0.00077688164
0.00070119415
0.00064307339
0.00060738691
0.00056415877
0.00049653926
0.00044519324
0.00054880225
0.00051977328
0.00058725048
0.00064144133
0.00066935737
0.00068520128
0.00069909015
0.00070898776
0.00071091591
0.00070658139
0.00070254432
0.00071130914
0.00074045284
0.0007864304
0.0008278176
0.00083453219
0.00079283522
0.00072663625
0.0006733766
0.00063291866
0.00056656265
0.00047821297
0.0004239757
0.00052333128
0.00056140909
0.00059838025
0.00061581789
0.00063510435
0.00066341776
0.00068434402
0.00068127209
0.00065242005
0.00061063203
0.00057283989
0.00055223439
0.00055832524
0.00060041318
0.00067754983
0.00076113052
0.00080325418
0.00078321718
0.00073476997
0.00069349207
0.00064325754
0.00054379414
0.00046142003
0.00044348613
0.00056049697
0.00054283348
0.00055794185
0.00056620615
0.0005941609
0.00064646731
0.00068864416
0.00068418626
0.00062622855
0.00053794319
0.00045096044
0.00038659327
0.00035503534
0.00035608593
0.00038987716
0.00046414909
0.0005808703
0.00070356739
0.00077009051
0.00076761007
0.00073923562
0.00070585436
0.00062084202
0.00051124282
0.00039581967
0.00054458823
0.00051868315
0.00051793042
0.00055221683
0.00062715263
0.00069821136
0.00070550646
0.00062673141
0.00049505947
0.00036112262
0.00025732898
0.00019152659
0.00016287724
0.00016934017
0.00020651984
0.00027428226
0.00038400924
0.00053742605
0.00068142144
0.00075285135
0.00076143253
0.00074986502
0.0006891516
0.00057245955
0.00044602532
0.00047856575
0.00071455672
0.0005017969
0.0004814663
0.00050679688
0.00058849779
0.00068951487
0.0007328866
0.00066374024
0.00050622461
0.00033494572
0.00019714318
0.00011022611
6.7566215e-05
5.2837792e-05
5.6263739e-05
7.9062272e-05
0.00013307747
0.00022739538
0.00037349781
0.00055363157
0.00069382168
0.00075584469
0.00077508294
0.00074236092
0.00063503378
0.00047535439
0.00044580775
0.0006264362
0.00046553714
0.00046216283
0.00052763367
0.0006444731
0.00073987389
0.0007252018
0.00057969084
0.00038031733
0.00020857501
9.6489378e-05
4.8209703e-05
3.4009679e-05
3.0245314e-05
3.0285849e-05
3.266869e-05
5.546881e-05
0.00012204812
0.0002477181
0.00043084251
0.00061371037
0.00072831942
0.00078437341
0.0007805366
0.00068919677
0.00051216159
0.000412185
0.000571659
0.00042505723
0.00046147964
0.00056474646
0.00069602288
0.00076487081
0.00069013401
0.00049780115
0.00028787267
0.00013132201
5.4149076e-05
3.0576405e-05
2.6427919e-05
2.5861239e-05
2.535958e-05
2.4699445e-05
2.7909656e-05
6.3712721e-05
0.00016580005
0.0003380358
0.00053866187
0.00069276591
0.00078463759
0.00080772209
0.00073131451
0.00054985455
0.00040385611
0.00056766243
0.00046079308
0.00040270194
0.00047629365
0.00059918628
0.00073121268
0.0007706622
0.00065649288
0.00044524681
0.00023370106
9.4685787e-05
4.0370537e-05
2.5660727e-05
2.7089547e-05
3.2717966e-05
2.9336636e-05
2.4980431e-05
2.4763493e-05
3.9238678e-05
0.00012011906
0.00028154577
0.00048558342
0.0006635777
0.00078481991
0.00082852598
0.00076070228
0.00057536032
0.00041088854
0.00056438117
0.00041562283
0.00039062068
0.00049085128
0.00062039257
0.00075005838
0.00077070557
0.00064334483
0.00042685241
0.00021440651
8.5526061e-05
3.8287161e-05
2.5375978e-05
2.818451e-05
7.6243705e-05
4.3854541e-05
2.4044426e-05
2.4159515e-05
3.492059e-05
0.00010536946
0.00026108723
0.00046174454
0.0006520214
0.00079390158
0.00084628164
0.00077378438
0.00057838469
0.00042096125
0.00058052696
0.00038935267
0.00038284817
0.00049584535
0.00062577846
0.00075511532
0.00077351871
0.00065509956
0.00044247577
0.00022949378
9.7541663e-05
4.3089773e-05
2.5452379e-05
2.5397595e-05
3.6892753e-05
2.6127444e-05
2.3048367e-05
2.428223e-05
4.0452092e-05
0.00011823248
0.00027339686
0.00046882626
0.00066571806
0.00081589231
0.00085988072
0.00076837656
0.000561975
0.00038570946
0.00059879434
0.00038989031
0.0003689057
0.00048474752
0.00061502845
0.00074718665
0.00077979234
0.00068835114
0.00049242119
0.00027895093
0.00013217635
5.9881938e-05
3.0128691e-05
2.2602589e-05
2.2393735e-05
2.2454123e-05
2.231544e-05
2.7421355e-05
6.2652684e-05
0.00015883439
0.00031556179
0.00050944041
0.00070840255
0.00084767603
0.00086225672
0.00073837054
0.00051980816
0.00037120847
0.00062597403
0.00044455213
0.0003519544
0.00045949496
0.00058770727
0.00072492884
0.00078377815
0.00073396985
0.00057076542
0.00036372201
0.00020094964
9.9927027e-05
4.9733994e-05
3.0452548e-05
2.6184862e-05
2.656279e-05
3.1764838e-05
5.3181198e-05
0.0001157583
0.00022894676
0.00039065166
0.00058711637
0.00077418353
0.00087592336
0.00084187304
0.00068248311
0.00047224574
0.00038266916
0.0004293605
0.00033523498
0.00042333528
0.00054311246
0.00068587241
0.00077389222
0.00077588947
0.00066562817
0.00048202424
0.00031016196
0.00018860774
0.00011325414
7.2236998e-05
5.5691037e-05
5.6885795e-05
7.633563e-05
0.00012258473
0.00020874256
0.00033592945
0.00050643869
0.00069523184
0.00084193922
0.00087981485
0.00078742968
0.00060176591
0.00042920685
0.00040400699
0.00032540165
0.00038224433
0.00048403953
0.00062696953
0.00073950609
0.00079414061
0.00075368153
0.00062375109
0.00046169815
0.00032715201
0.00023640332
0.00018038091
0.00015409298
0.00015613352
0.00018733338
0.00025107271
0.0003525296
0.00048904866
0.00065480483
0.00080386392
0.00087817012
0.00083902002
0.00069616599
0.00051303227
0.00040804223
0.00045657073
0.00033083294
0.00034680701
0.00041667738
0.00054906262
0.00067475623
0.00077112292
0.00080145992
0.00074891093
0.00063321204
0.00050772631
0.00041121489
0.00035032934
0.00032144329
0.00032501805
0.00036299151
0.00043503789
0.00053966473
0.00066652979
0.00079215616
0.0008660655
0.00085399027
0.00074854349
0.00058394288
0.00043546098
0.00038046756
0.00052225339
0.00036606003
0.00032717856
0.00035394335
0.00045963288
0.00058239683
0.00070119923
0.00078496037
0.00081158872
0.00077368059
0.00069548081
0.00061589141
0.00056073477
0.00053640392
0.00054297466
0.00058046444
0.00064518952
0.00072785575
0.00080924201
0.00085955715
0.00084776704
0.00076284665
0.00062025446
0.00046959494
0.00038167344
0.00037846248
0.00035418175
0.00031588738
0.0003758799
0.00047533628
0.00059264183
0.00070203953
0.00078337732
0.00082090658
0.00081513965
0.00078386806
0.00075138094
0.00073504554
0.00074018386
0.00076470802
0.0008014478
0.0008368748
0.00085176516
0.00082558516
0.00074673733
0.00062179758
0.00048141198
0.00037752863
0.00034590052
0.00031220203
0.00032358035
0.00037991991
0.00046867727
0.00057297068
0.00067320737
0.0007539585
0.00080509646
0.00082993775
0.00083707119
0.00083789089
0.00083938758
0.00084195092
0.00084071132
0.0008241739
0.00077997463
0.0007000489
0.00058789365
0.00046410459
0.00036644137
0.00032758111
0.00037175291
0.00031818577
0.00032803333
0.00036900424
0.00043640632
0.00052024123
0.00060617612
0.00067817243
0.00073108268
0.00076416601
0.00077964099
0.00078066059
0.00076717856
0.00073645741
0.0006841592
0.0006078032
0.00051234665
0.00041444096
0.00034396064
0.00031078694
0.00035490662
0.00033257663
0.00034113936
0.00034804837
0.00038499108
0.00043918196
0.00049937042
0.00055066699
0.00059035563
0.00060932243
0.00060914749
0.00058873195
0.00054880034
0.00049341111
0.00043010724
0.00037259056
0.00033129303
0.00029062415
0.00033835577
0.00039308327
0.00033418635
0.00034528703
0.0003377735
0.00035290173
0.00037247919
0.00039528486
0.00040516078
0.00040233802
0.00038613923
0.00035885778
0.00033101577
0.00031048109
0.00028378973
0.0002949138
0.00042033994
0.00038787813
0.00033587637
0.00029905772
0.00029280697
0.00029217571
0.00029185359
0.00029005843
0.00029317948
0.00030966801
0.00036055264
0.00036105869
0.00059186513
0.00052270212
0.00049842156
0.00047341699
0.00045948766
0.00053143367
0.0005608301
0.00055692394
0.00054411488
0.00057256781
0.0006172113
0.00068966884
0.00076912478
0.00080640323
0.00049859627
0.00051439252
0.0005544629
0.00058797884
0.00061536099
0.00062817295
0.00063079796
0.0006355879
0.00065805194
0.00069429264
0.00070886979
0.00072149162
0.00067232633
0.00072943227
0.00048813829
0.00054550866
0.00064745108
0.00074317969
0.0008188621
0.00086786142
0.00089188283
0.00088820633
0.00085793127
0.00080957248
0.00076098797
0.00073788301
0.00073651901
0.00075090414
0.00074293612
0.0006643846
0.00060115764
0.00052065021
0.0006256854
0.00076574782
0.00088693127
0.00096669498
0.0010121762
0.0010355644
0.0010462044
0.0010465561
0.0010322874
0.00099656309
0.0009371463
0.00086892613
0.00081687317
0.00079689483
0.00080951042
0.00076610575
0.00066763915
0.00055735835
0.00056209899
0.00067266152
0.00082894026
0.00094503684
0.0010023096
0.0010204642
0.0010220636
0.0010196767
0.0010193047
0.0010254522
0.0010370506
0.0010461789
0.0010372718
0.00099726463
0.0009342562
0.00087431047
0.00085797085
0.00085255919
0.00079113011
0.00065360211
0.00052221597
0.0006195916
0.00068692445
0.00083286404
0.00092813069
0.00095462786
0.00094568824
0.00092988374
0.00091525555
0.00089992729
0.00088466401
0.00087448216
0.00088194378
0.00091274801
0.00095910511
0.00099564902
0.00099550531
0.00095460878
0.0009125813
0.00090453307
0.00088921806
0.00079035123
0.00061862045
0.0004897977
0.00066642338
0.00079979522
0.00088120751
0.00088779755
0.00086925502
0.00086040074
0.00085625709
0.00083867566
0.00080136101
0.00075407088
0.00071319454
0.00069299291
0.00070427995
0.00075567966
0.00084042689
0.00092439261
0.00096425104
0.00095358832
0.00094062699
0.00094473989
0.00090383513
0.00074627849
0.00056658229
0.00049866573
0.00065346881
0.00076796613
0.00083350788
0.000825434
0.00080645768
0.00081941664
0.00084246253
0.00083146105
0.00076979825
0.0006755842
0.00057922559
0.00050472684
0.00046557435
0.00046537928
0.00050828885
0.00060124416
0.00073511493
0.00086420532
0.00093539866
0.00095572216
0.00097233001
0.00097423844
0.00086664125
0.00066969123
0.00048078874
0.00072694315
0.00077221334
0.00076555841
0.00075223796
0.00078772348
0.00084581024
0.00085484283
0.00077791206
0.0006390096
0.00048773984
0.00036259348
0.00027902976
0.00023766502
0.00023812699
0.00027838018
0.00036390453
0.0005055569
0.00068652939
0.00084350505
0.00093185267
0.00097849481
0.0010115112
0.00095548387
0.00076862457
0.00054675756
0.0005248293
0.00084062159
0.00072005259
0.00072276742
0.00070619976
0.00074542297
0.0008344531
0.0008851321
0.00082484071
0.00066351969
0.00046917363
0.00030264016
0.00018795149
0.00012232435
9.4116051e-05
9.4203328e-05
0.00012268891
0.0001878103
0.00030844175
0.00049607697
0.00070739551
0.00086804436
0.00096289873
0.0010275821
0.0010145343
0.00085577221
0.00059921603
0.00050910783
0.00077631691
0.00069788451
0.00066762945
0.00068615277
0.00078713689
0.00089113286
0.00089095957
0.00075182517
0.00053385424
0.00032652744
0.00017718149
8.8117695e-05
4.8779246e-05
3.7094381e-05
3.7388944e-05
4.8828412e-05
8.6800724e-05
0.00017517613
0.0003410331
0.00057002825
0.00078434418
0.0009309491
0.0010306186
0.0010520247
0.00092293161
0.00064869933
0.00048918575
0.00073667893
0.00063655111
0.00062670947
0.00070653321
0.00084478031
0.00092751626
0.00086853149
0.00067455957
0.00043411717
0.00023543889
0.00010533078
4.1907214e-05
2.8471238e-05
2.7385615e-05
2.661202e-05
2.7158153e-05
4.1658743e-05
9.9399922e-05
0.00023754384
0.00046191803
0.00070623671
0.00089527915
0.0010286892
0.0010765506
0.00096917604
0.00069667731
0.00049185265
0.00056875978
0.00065100526
0.00057950726
0.0006196752
0.00074407011
0.00089039457
0.00094160335
0.00084346255
0.00062377303
0.00037780464
0.00018688438
6.7708984e-05
2.7720153e-05
2.8165073e-05
3.5303452e-05
3.1456258e-05
2.5574348e-05
2.8985563e-05
6.4455375e-05
0.00018103888
0.00039541041
0.00065275866
0.000869978
0.0010301655
0.0010938951
0.00099486467
0.00072207172
0.00050458069
0.00058213649
0.00060449946
0.00054025289
0.00062940252
0.00077479852
0.00091654913
0.00094648138
0.00083555168
0.00060996297
0.00036313339
0.00017267142
5.6142681e-05
2.6751058e-05
3.0036096e-05
8.0080149e-05
5.0914377e-05
2.4243248e-05
2.7480812e-05
5.5442312e-05
0.00016413856
0.0003736473
0.00063402493
0.00086735264
0.0010432322
0.0011062919
0.0009952286
0.00071217021
0.00047854134
0.00060241231
0.00055252181
0.00051531013
0.00063728775
0.00078871682
0.00092517323
0.00095166635
0.0008503564
0.00063397052
0.00038948885
0.00019317458
6.8405428e-05
2.6861425e-05
2.5986753e-05
4.0760432e-05
2.672359e-05
2.3303516e-05
2.8028139e-05
6.6258858e-05
0.00018513835
0.00039623733
0.00065447184
0.00089466024
0.0010693051
0.0011097607
0.00096716418
0.00067432787
0.00045801012
0.00061761604
0.00053042018
0.00048893773
0.00063010939
0.00078309841
0.0009186971
0.00095822085
0.00088421549
0.00069334661
0.00045730184
0.00025338966
0.00011085492
3.9168071e-05
2.3517169e-05
2.2889591e-05
2.2770753e-05
2.3575636e-05
4.1437685e-05
0.00010653933
0.0002464346
0.00046268899
0.00071733001
0.0009519061
0.001100351
0.0010931894
0.00090510112
0.00060555294
0.00043656962
0.00063060262
0.00056392451
0.0004617692
0.00060469416
0.00075728005
0.00089760448
0.00095997543
0.00092759151
0.00077874704
0.00056407902
0.00035849983
0.00019998211
9.640816e-05
4.772539e-05
3.3970427e-05
3.3824756e-05
4.8394463e-05
9.516623e-05
0.00019215081
0.00035379705
0.00057539922
0.0008204483
0.0010257825
0.0011172176
0.0010425111
0.00081007094
0.00053316018
0.00042707805
0.0005133634
0.00043295421
0.0005631388
0.00071094489
0.00085695739
0.00094573639
0.00096366621
0.00087421492
0.00070061171
0.00050712865
0.00034282893
0.00022048103
0.0001426263
0.00010752851
0.00010796229
0.00014133397
0.00021419751
0.00033652131
0.00051376891
0.00073128716
0.00094492249
0.0010871291
0.0010951065
0.00094647883
0.00068798255
0.00047458009
0.0004304265
0.00040721675
0.00050897238
0.00064424653
0.00079403196
0.00090496989
0.00097236645
0.00095410206
0.00084493351
0.00068681105
0.00053345369
0.00041025832
0.00032442762
0.00027971622
0.00027842478
0.00032121392
0.00040890114
0.00054330849
0.00071679663
0.00090273681
0.0010491892
0.0010984213
0.0010148665
0.00081263909
0.00057492394
0.00044527191
0.00045284799
0.00038052764
0.00045154068
0.00055993531
0.0007071284
0.00083140836
0.00093683442
0.00098809815
0.00095947028
0.00086395679
0.00074544134
0.00063996192
0.00056400363
0.00052420134
0.00052555905
0.00057098769
0.00065790266
0.00077927905
0.00091589539
0.0010328181
0.001084084
0.0010342185
0.0008787713
0.00066114351
0.00047974445
0.00041688668
0.0005146304
0.00039691143
0.0004010919
0.00046866394
0.00059937887
0.0007259265
0.0008503125
0.00095302328
0.0010030798
0.00098779083
0.00092948995
0.00086168821
0.00080896416
0.00078324864
0.00078920444
0.00082741208
0.00089284558
0.00097204613
0.0010412809
0.0010689969
0.0010254939
0.00089889613
0.00070856872
0.00051469065
0.00041207123
0.00040025129
0.00039987249
0.00039717057
0.00048482406
0.00059853167
0.00072087734
0.00084607062
0.00095008322
0.0010093342
0.0010215602
0.0010064913
0.00098591569
0.00097547974
0.00098123794
0.0010018447
0.0010298783
0.0010518262
0.0010468818
0.00099413233
0.00088064129
0.00071296519
0.00052894328
0.00040753702
0.00038357525
0.00036145858
0.00039814774
0.00047263433
0.00057176119
0.00068899607
0.00080849138
0.00091252038
0.00098131936
0.0010183061
0.0010334737
0.0010390893
0.0010417376
0.0010412646
0.0010304065
0.00099868315
0.00093294323
0.00082380322
0.00067382566
0.00051062814
0.00039851507
0.00036322738
0.00041155502
0.000368021
0.00039314137
0.00044387851
0.00052374867
0.00061981859
0.0007267682
0.00081913166
0.00088774436
0.00092992759
0.00094836121
0.0009476923
0.00092823737
0.00088641575
0.00081736048
0.00071799284
0.00059377571
0.0004664489
0.00038065874
0.00035402333
0.00039215847
0.00038218104
0.00039960429
0.00040919483
0.00045319771
0.00051908163
0.00059538853
0.00066413985
0.00071647744
0.00074114446
0.00073987427
0.00071147711
0.00065779884
0.00058503572
0.00050181232
0.00042504649
0.00036972159
0.00032355491
0.00038759604
0.00045382046
0.00037901029
0.00039567161
0.00039055964
0.00041455406
0.00044415235
0.00047692295
0.0004904882
0.00048557711
0.00046187783
0.00042539771
0.00038897181
0.0003570619
0.00032403354
0.00033367504
0.00045659594
0.00042237783
0.00037294592
0.00034641512
0.00034804763
0.00035175554
0.00035184925
0.00034671204
0.00034505386
0.00035580538
0.0003913853
0.00038599451
0.00062742709
0.00055309548
0.00052994478
0.00050184534
0.00047247588
0.0006733646
0.00075378676
0.00077400619
0.00076629328
0.00079983883
0.00083783473
0.00088632147
0.00089759697
0.00091384553
0.00054507303
0.00060320778
0.0006650006
0.0007194695
0.00076642723
0.00080189386
0.00083603783
0.00088402862
0.00094416293
0.0009900817
0.00097419122
0.0009299388
0.00078190334
0.00079686803
0.00052168025
0.00060897937
0.00074956781
0.0008730786
0.0009634414
0.0010177462
0.0010408335
0.0010338446
0.0010052026
0.00097273841
0.00096251792
0.00099203165
0.001033775
0.0010556067
0.0010047605
0.00082055459
0.00069456227
0.00057700923
0.00072572785
0.000925679
0.0010923181
0.0011974689
0.0012515708
0.0012715067
0.0012708504
0.0012536612
0.0012179827
0.0011631576
0.0010987126
0.0010514553
0.0010479229
0.0010832476
0.0011228131
0.00103424
0.00085323416
0.00065141227
0.00062914709
0.00081902285
0.0010598106
0.0012332954
0.0013148053
0.0013315243
0.0013177676
0.0012955277
0.001276275
0.0012632907
0.0012559414
0.0012438424
0.0012130585
0.0011609187
0.0011111578
0.0010969423
0.0011427516
0.0011619597
0.0010607542
0.0008274543
0.00059535867
0.00071523602
0.00085980519
0.001104416
0.0012609294
0.0012991508
0.0012673887
0.0012159122
0.001168328
0.0011290748
0.0010988362
0.0010804527
0.0010841956
0.0011107435
0.0011474003
0.0011687717
0.0011588323
0.0011326856
0.0011423601
0.001195473
0.0011966179
0.0010420587
0.00076282787
0.00053662661
0.00081028105
0.0010715789
0.0012284312
0.0012361408
0.0011725733
0.0011093652
0.0010640768
0.001022573
0.00097391012
0.0009220491
0.00087931869
0.00085980844
0.00087546267
0.00093230639
0.0010167927
0.0010926308
0.0011285989
0.0011429055
0.0011903374
0.0012479157
0.0011994346
0.00095881999
0.00065180112
0.00058966927
0.00072927076
0.0010383639
0.0011895914
0.0011739102
0.0010905572
0.0010361272
0.0010172207
0.00099014864
0.00092676268
0.00083429961
0.00073787862
0.00066130529
0.00061925419
0.00061794667
0.00066531002
0.00076702797
0.00090513164
0.001030566
0.0011077345
0.001169824
0.0012508345
0.0012823386
0.0011270305
0.0007998403
0.00055525007
0.00093430075
0.0011099197
0.0011154897
0.0010304064
0.00098845363
0.0010046036
0.0010053758
0.0009362129
0.00080488556
0.00065315073
0.00051904093
0.00042359076
0.00037365197
0.00036998338
0.000411861
0.00050748501
0.0006641165
0.00085326521
0.0010130601
0.0011256476
0.0012306925
0.0013136331
0.0012399548
0.00094122883
0.0006141343
0.00058051512
0.00092585892
0.00099712564
0.0010764421
0.00099967303
0.00094787838
0.00098806617
0.0010320399
0.0009853502
0.00083772542
0.00064387793
0.00046065647
0.00031888815
0.00022743368
0.00018438852
0.00018340982
0.00022031742
0.00030066938
0.00044409155
0.00065381555
0.0008763912
0.0010538663
0.0011966237
0.0013178245
0.0013068694
0.0010564362
0.00067309623
0.00056660511
0.00089224105
0.0010237942
0.00099101141
0.00090875307
0.00094360669
0.0010349885
0.0010487044
0.00092886035
0.00071909317
0.00049667338
0.00030769018
0.00017351341
9.6955796e-05
6.7791942e-05
6.9593261e-05
9.9594474e-05
0.00016345366
0.00028245028
0.00048241457
0.00073549165
0.00096821293
0.0011552715
0.0013103943
0.0013432896
0.0011374724
0.00072835589
0.00054033064
0.00089097666
0.00097101749
0.00089138974
0.0008766532
0.00098828215
0.0010795985
0.0010400128
0.00086386545
0.00062323409
0.00039099511
0.00019886517
7.9572792e-05
3.7501738e-05
3.2587957e-05
3.1909124e-05
4.4144497e-05
8.7435539e-05
0.00018181472
0.0003615419
0.0006219002
0.00089092285
0.001117375