/*--------------------------------*- C++ -*----------------------------------*\
| =========                 |                                                 |
| \\      /  F ield         | OpenFOAM: The Open Source CFD Toolbox           |
|  \\    /   O peration     | Version:  2406                                  |
|   \\  /    A nd           | Website:  www.openfoam.com                      |
|    \\/     M anipulation  |                                                 |
\*---------------------------------------------------------------------------*/
FoamFile
{
    version     2.0;
    format      ascii;
    arch        "LSB;label=32;scalar=64";
    class       volScalarField;
    location    "1000";
    object      nut;
}
// * * * * * * * * * * * * * * * * * * * * * * * * * * * * * * * * * * * * * //

dimensions      [0 2 -1 0 0 0 0];

internalField   nonuniform List<scalar> 
150387
(
9.8095547e-06
1.1301488e-05
1.2114908e-05
1.2724283e-05
1.3249641e-05
1.1396136e-05
8.5965563e-06
7.5408934e-06
3.9915026e-06
1.0121832e-05
1.1787364e-05
1.3102052e-05
1.4376776e-05
1.5227636e-05
1.5513357e-05
1.5562455e-05
1.574768e-05
1.5426318e-05
1.4961841e-05
1.2995048e-05
5.6170058e-06
9.2925177e-06
1.1230706e-05
1.40283e-05
1.7488676e-05
2.0391227e-05
2.1760764e-05
2.1997224e-05
2.1820654e-05
2.1073681e-05
1.9322415e-05
1.784211e-05
1.7270792e-05
1.6772192e-05
1.5178075e-05
1.1881191e-05
5.3918394e-06
3.7726599e-06
1.0696628e-05
1.3904641e-05
1.868907e-05
2.3103809e-05
2.5414072e-05
2.6255053e-05
2.6176897e-05
2.5679929e-05
2.5275417e-05
2.4616003e-05
2.3551953e-05
2.1675409e-05
1.9196437e-05
1.8414994e-05
1.8065118e-05
1.6713646e-05
1.3500622e-05
6.1402461e-06
2.965098e-06
1.0021132e-05
1.5610823e-05
2.1891701e-05
2.5136682e-05
2.6028315e-05
2.5796465e-05
2.5104848e-05
2.416444e-05
2.3421338e-05
2.3242106e-05
2.3459551e-05
2.3651087e-05
2.3148826e-05
2.1794667e-05
1.9471862e-05
1.909999e-05
1.8918963e-05
1.7444633e-05
1.2612257e-05
8.2092695e-06
1.1387973e-05
1.7228662e-05
2.1778506e-05
2.3514863e-05
2.3444134e-05
2.2602207e-05
2.1031746e-05
1.9180964e-05
1.75362e-05
1.6513652e-05
1.6505915e-05
1.7394542e-05
1.8729514e-05
2.000989e-05
2.1254697e-05
2.077015e-05
1.9360228e-05
1.9660285e-05
1.9614637e-05
1.7639551e-05
1.2177537e-05
6.5988364e-06
9.7593366e-06
1.5992725e-05
2.040907e-05
2.1620411e-05
2.142203e-05
2.0455125e-05
1.8550909e-05
1.615514e-05
1.4018462e-05
1.2394149e-05
1.1288106e-05
1.0871375e-05
1.1182127e-05
1.2203848e-05
1.4024358e-05
1.6289118e-05
1.8470006e-05
1.9205646e-05
1.9531031e-05
2.0362792e-05
2.0285297e-05
1.6160993e-05
1.059635e-05
5.6382658e-06
3.6992683e-06
1.4353134e-05
1.8869863e-05
2.0108705e-05
2.0056776e-05
1.9317222e-05
1.7681676e-05
1.5121319e-05
1.2608278e-05
1.0818634e-05
9.8478752e-06
9.4127515e-06
9.2548639e-06
9.2755791e-06
9.5036558e-06
1.0241809e-05
1.1710722e-05
1.3835899e-05
1.6296564e-05
1.8231948e-05
2.0136447e-05
2.1287215e-05
1.9615697e-05
1.3994507e-05
1.0126429e-05
1.20634e-05
1.7347499e-05
1.8810323e-05
1.9036147e-05
1.8834302e-05
1.7809569e-05
1.5615553e-05
1.2600181e-05
1.0552854e-05
9.7015347e-06
9.4953706e-06
9.3695506e-06
9.205941e-06
9.1727285e-06
9.2634205e-06
9.3716334e-06
9.7708657e-06
1.0930906e-05
1.2812298e-05
1.5424015e-05
1.8634401e-05
2.1328433e-05
2.2114157e-05
1.6826226e-05
1.2120199e-05
1.005748e-05
1.4503524e-05
1.7301002e-05
1.8079321e-05
1.8449223e-05
1.8095253e-05
1.7086572e-05
1.3690875e-05
1.0836169e-05
9.7005691e-06
9.3146224e-06
8.6799008e-06
7.6692383e-06
6.8915162e-06
6.9298279e-06
7.6388469e-06
8.6522101e-06
9.2977517e-06
9.7715039e-06
1.0745127e-05
1.2753766e-05
1.626921e-05
2.0503575e-05
2.3243368e-05
1.9961401e-05
1.3709887e-05
1.0849964e-05
1.0023793e-05
1.5224912e-05
1.6895701e-05
1.7805242e-05
1.8252453e-05
1.8427482e-05
1.5995204e-05
1.1875901e-05
9.7845355e-06
9.1709184e-06
8.1963592e-06
6.2605429e-06
4.6486515e-06
4.0855216e-06
4.2378581e-06
4.5119697e-06
5.6815197e-06
8.1428523e-06
9.3808326e-06
9.8481058e-06
1.0976507e-05
1.412632e-05
1.9228233e-05
2.3421303e-05
2.2586257e-05
1.5302169e-05
1.1139887e-05
1.065816e-05
1.5319456e-05
1.6643726e-05
1.789765e-05
1.8681723e-05
1.8874551e-05
1.4583818e-05
1.0572622e-05
9.2164336e-06
8.4757873e-06
6.4152359e-06
4.4381926e-06
3.4081707e-06
2.9344407e-06
3.1311976e-06
3.2491723e-06
3.5955858e-06
5.5106005e-06
8.573593e-06
9.5293526e-06
1.000668e-05
1.2563172e-05
1.8098096e-05
2.3390334e-05
2.4214544e-05
1.7235612e-05
1.2098863e-05
8.7255322e-06
1.4047811e-05
1.4877442e-05
1.6586672e-05
1.8178192e-05
1.9623155e-05
1.8381114e-05
1.3439204e-05
9.6872576e-06
8.9285207e-06
7.6651761e-06
5.4410544e-06
3.9007912e-06
2.6244502e-06
2.4853089e-06
2.393202e-06
2.5919575e-06
3.0345367e-06
4.0354773e-06
7.2229036e-06
9.2568317e-06
9.4944885e-06
1.159783e-05
1.7670372e-05
2.3660031e-05
2.5204913e-05
1.9218024e-05
1.2657417e-05
1.0972484e-05
1.3059497e-05
1.4446691e-05
1.6454317e-05
1.8444275e-05
2.0326318e-05
1.7881054e-05
1.2726428e-05
9.242675e-06
8.7228749e-06
7.1142972e-06
5.021829e-06
3.5818615e-06
2.4952902e-06
2.7119644e-06
3.0387943e-06
2.3928554e-06
2.8153234e-06
3.5907752e-06
6.4095646e-06
8.9190952e-06
9.1752258e-06
1.1241529e-05
1.7791848e-05
2.4007103e-05
2.563282e-05
2.015557e-05
1.3072438e-05
9.530717e-06
1.2557778e-05
1.3996168e-05
1.6099155e-05
1.8467509e-05
2.0790873e-05
1.77774e-05
1.2553767e-05
9.2558778e-06
8.6175513e-06
6.9449545e-06
4.8834363e-06
3.5177363e-06
2.6894856e-06
3.3581125e-06
2.1168497e-06
2.5815782e-06
2.8128241e-06
3.6302466e-06
6.359452e-06
8.6421025e-06
8.9791221e-06
1.1396955e-05
1.8232219e-05
2.4265709e-05
2.5319824e-05
1.9729511e-05
1.3210341e-05
9.4381529e-06
1.1830761e-05
1.3621358e-05
1.5611714e-05
1.8252645e-05
2.1263182e-05
1.8405723e-05
1.3137596e-05
9.7467177e-06
8.7696779e-06
7.2798774e-06
5.3429307e-06
3.9367281e-06
3.1518832e-06
2.6674762e-06
2.6644951e-06
2.85688e-06
3.1555437e-06
4.4641843e-06
7.1390739e-06
8.5634509e-06
9.1204618e-06
1.2259558e-05
1.9214941e-05
2.4741841e-05
2.4560331e-05
1.81944e-05
1.3281756e-05
4.5580409e-06
9.1193938e-06
1.2996321e-05
1.5124349e-05
1.7904116e-05
2.1684461e-05
1.9956192e-05
1.4643278e-05
1.0716456e-05
9.1688622e-06
7.8826219e-06
6.3008033e-06
4.7392665e-06
3.7078461e-06
3.1364887e-06
3.1061478e-06
3.3039901e-06
4.0530579e-06
6.0553636e-06
8.0282959e-06
8.6447034e-06
9.9100914e-06
1.4089768e-05
2.0790752e-05
2.5252833e-05
2.3252467e-05
1.6275626e-05
1.1517051e-05
8.0086967e-06
7.9907876e-06
1.2015938e-05
1.4441207e-05
1.7235226e-05
2.1476204e-05
2.1542892e-05
1.6842046e-05
1.2440677e-05
9.9921009e-06
8.5761484e-06
7.3885843e-06
6.2055351e-06
5.0226627e-06
4.2913469e-06
4.3081881e-06
4.7955692e-06
6.0353543e-06
7.6043832e-06
8.4578292e-06
9.2237689e-06
1.156526e-05
1.6908325e-05
2.2760514e-05
2.5041101e-05
2.07764e-05
1.4934034e-05
1.1461612e-05
1.0361542e-05
1.3350196e-05
1.6239689e-05
2.0295211e-05
2.2057356e-05
1.9609798e-05
1.5177117e-05
1.1673388e-05
9.566457e-06
8.2661573e-06
7.4719924e-06
6.7459148e-06
6.3474983e-06
6.4969945e-06
6.9802985e-06
7.7133012e-06
8.3856353e-06
9.1305791e-06
1.0791933e-05
1.4427704e-05
2.0150015e-05
2.4651105e-05
2.3531862e-05
1.7533412e-05
1.3689947e-05
7.0603268e-06
9.5789554e-06
1.1724027e-05
1.4968299e-05
1.894199e-05
2.0968462e-05
2.1595918e-05
1.8769505e-05
1.496254e-05
1.1646455e-05
9.5190517e-06
8.3426715e-06
7.8859753e-06
7.7628394e-06
7.9068188e-06
8.1984656e-06
8.6594969e-06
9.4221172e-06
1.0864083e-05
1.3672585e-05
1.844153e-05
2.3261704e-05
2.4488455e-05
2.0074439e-05
1.5458045e-05
1.0093042e-05
8.1258535e-06
9.5194301e-06
1.3311394e-05
1.7081886e-05
1.9770561e-05
2.0996421e-05
2.1319354e-05
1.9515029e-05
1.6090137e-05
1.2645805e-05
1.0308533e-05
9.1492466e-06
8.8225183e-06
8.9641366e-06
9.4091194e-06
1.0238856e-05
1.1700558e-05
1.4272725e-05
1.8111327e-05
2.2315466e-05
2.4611222e-05
2.1616467e-05
1.6630377e-05
1.2791903e-05
7.4130388e-06
7.1812459e-06
1.1062662e-05
1.4424876e-05
1.8057887e-05
1.9779126e-05
2.0508769e-05
2.1674576e-05
2.1168511e-05
1.8693215e-05
1.5989428e-05
1.3597932e-05
1.2452978e-05
1.2359466e-05
1.2870073e-05
1.420654e-05
1.6400831e-05
1.9333344e-05
2.2640432e-05
2.460894e-05
2.2083151e-05
1.7276681e-05
1.3730494e-05
9.7895872e-06
4.4503255e-06
8.5705638e-06
1.0809797e-05
1.562094e-05
1.790319e-05
1.9049028e-05
2.0116659e-05
2.2000521e-05
2.2741591e-05
2.2184123e-05
2.10076e-05
2.032528e-05
2.0055995e-05
2.0138316e-05
2.1028365e-05
2.2699727e-05
2.4586496e-05
2.4888009e-05
2.2061441e-05
1.7267834e-05
1.3497825e-05
8.0398586e-06
4.583595e-06
6.964345e-06
1.229874e-05
1.5126855e-05
1.7075001e-05
1.7974197e-05
1.9047376e-05
2.1315593e-05
2.3044649e-05
2.4271163e-05
2.5164654e-05
2.5744969e-05
2.5846893e-05
2.5783481e-05
2.5482932e-05
2.3912383e-05
2.015414e-05
1.5375884e-05
1.2305334e-05
9.1174303e-06
5.8905697e-06
5.8008973e-06
1.0778954e-05
1.4184517e-05
1.5786261e-05
1.646942e-05
1.7288623e-05
1.8672284e-05
2.0397715e-05
2.1902994e-05
2.2808263e-05
2.2603588e-05
2.131075e-05
1.891156e-05
1.5539314e-05
1.2884301e-05
1.0700576e-05
7.5636271e-06
5.2176286e-06
3.8940628e-06
8.7687399e-06
1.322914e-05
1.3758768e-05
1.4269262e-05
1.4787281e-05
1.5425311e-05
1.6038606e-05
1.6087527e-05
1.522361e-05
1.3920438e-05
1.271155e-05
1.1402904e-05
9.9055566e-06
7.1978112e-06
4.3403481e-06
3.9014477e-06
9.4510932e-06
1.1449688e-05
1.1915916e-05
1.2692043e-05
1.2170633e-05
1.1793013e-05
1.1376201e-05
1.0567932e-05
1.018594e-05
8.3720818e-06
7.969555e-06
8.1537596e-06
9.6637344e-06
9.3511591e-06
9.4425032e-06
1.1738858e-05
7.6023719e-06
7.4621861e-06
1.7827412e-05
2.5581185e-05
2.4271455e-05
2.3975055e-05
2.3297186e-05
2.1809451e-05
2.5399733e-05
1.5940718e-05
1.5644206e-05
2.9453762e-05
3.5889255e-05
4.1839355e-05
4.6662719e-05
4.8779603e-05
4.8219919e-05
4.569755e-05
4.2974013e-05
3.9478614e-05
3.0258764e-05
2.9236832e-05
1.0481255e-05
8.5501574e-06
8.0426117e-06
2.8448648e-05
4.0472345e-05
5.2031784e-05
6.2414178e-05
7.0340275e-05
7.5326085e-05
7.7205569e-05
7.6156564e-05
7.2130501e-05
6.5979005e-05
5.8377349e-05
5.2134968e-05
4.6779026e-05
3.9609096e-05
1.8017342e-05
1.8883006e-05
1.0592737e-05
2.7841407e-05
4.4795624e-05
6.1388288e-05
7.4594868e-05
8.3614091e-05
8.8951278e-05
9.1818861e-05
9.3031521e-05
9.2794983e-05
9.0689351e-05
8.6841264e-05
8.0313498e-05
7.1560814e-05
6.2003214e-05
5.6147646e-05
4.3839205e-05
2.7792838e-05
1.3292022e-05
1.0863444e-05
2.9384296e-05
5.03421e-05
6.8149476e-05
7.9953947e-05
8.5906451e-05
8.7633795e-05
8.7138787e-05
8.6422796e-05
8.6645715e-05
8.8145599e-05
9.0198917e-05
9.1171374e-05
8.9867512e-05
8.5950283e-05
7.8733421e-05
7.036532e-05
6.2360118e-05
4.9238706e-05
2.8969652e-05
1.3455782e-05
8.8978761e-06
2.7941666e-05
5.0005293e-05
6.6500141e-05
7.5288456e-05
7.8253586e-05
7.8042683e-05
7.5276733e-05
7.1747032e-05
6.8482908e-05
6.6086993e-05
6.6035696e-05
6.9222747e-05
7.5226892e-05
8.1836189e-05
8.5505723e-05
8.528191e-05
8.2047858e-05
7.5662115e-05
6.6425947e-05
4.9554785e-05
2.7782509e-05
1.2597591e-05
1.837856e-05
4.3584862e-05
6.0959557e-05
6.8125661e-05
7.188028e-05
7.3418317e-05
7.0150446e-05
6.4460892e-05
5.7333531e-05
5.019066e-05
4.4455615e-05
4.1322258e-05
4.1668884e-05
4.6404549e-05
5.6144781e-05
6.85634e-05
7.8192811e-05
8.2260043e-05
8.3061718e-05
7.8829962e-05
6.730803e-05
4.4652991e-05
2.8957497e-05
1.0425483e-05
1.746881e-05
3.9642096e-05
5.434943e-05
6.0502374e-05
6.6381823e-05
7.2301889e-05
7.0162661e-05
6.248496e-05
5.1550545e-05
3.9827832e-05
3.0963712e-05
2.5377368e-05
2.2748343e-05
2.2672683e-05
2.5263044e-05
3.1821261e-05
4.3751618e-05
6.0017766e-05
7.3270472e-05
8.0810326e-05
8.4640251e-05
8.0413898e-05
6.1782201e-05
4.0774753e-05
1.8260646e-05
2.8927425e-05
4.5149455e-05
5.2515028e-05
6.0396684e-05
7.1864167e-05
7.3530745e-05
6.4957611e-05
5.0682578e-05
3.5196874e-05
2.372118e-05
1.6285701e-05
1.1975029e-05
1.0281379e-05
1.0685156e-05
1.2845328e-05
1.7104239e-05
2.5316732e-05
3.9442233e-05
5.8134577e-05
7.2971303e-05
8.2907452e-05
8.772497e-05
7.6000646e-05
5.3407782e-05
3.0854539e-05
1.4134791e-05
9.4010118e-06
2.9229376e-05
4.6022919e-05
5.3458911e-05
6.8239345e-05
7.7175303e-05
7.1047451e-05
5.514162e-05
3.6309222e-05
2.2152447e-05
1.2593677e-05
7.2560834e-06
4.9794092e-06
4.5588842e-06
4.6536915e-06
5.5508035e-06
8.4061628e-06
1.4206154e-05
2.4875569e-05
4.1857249e-05
6.1917649e-05
7.7418298e-05
8.8927094e-05
8.6218191e-05
6.5801443e-05
3.7899103e-05
2.4662747e-05
2.0203097e-05
3.667856e-05
4.5113925e-05
5.8526564e-05
7.6196154e-05
7.8698871e-05
6.5382831e-05
4.4107466e-05
2.6088955e-05
1.3998598e-05
6.8317499e-06
5.1035711e-06
6.0716934e-06
5.5629144e-06
5.6360486e-06
4.6090265e-06
4.4186593e-06
7.7942591e-06
1.5815821e-05
3.0201686e-05
5.0308748e-05
7.0527231e-05
8.7036544e-05
9.1923246e-05
7.6376537e-05
4.6000391e-05
2.6025391e-05
1.0216168e-05
3.670254e-05
4.6921508e-05
6.6361542e-05
8.1504174e-05
7.7717033e-05
5.8508114e-05
3.6466414e-05
2.0039009e-05
9.5866139e-06
5.3397943e-06
6.8024039e-06
5.0446565e-06
4.6396465e-06
4.7477681e-06
4.6734428e-06
4.4507201e-06
4.6855982e-06
1.0648365e-05
2.2857435e-05
4.163312e-05
6.4254702e-05
8.4683434e-05
9.4899104e-05
8.3982459e-05
5.386968e-05
2.8417647e-05
7.7168563e-06
2.1311601e-05
3.531861e-05
5.0586355e-05
7.2429443e-05
8.4652578e-05
7.608476e-05
5.4118476e-05
3.290127e-05
1.7094711e-05
7.7879809e-06
5.4964906e-06
5.0280417e-06
4.7131742e-06
2.8429273e-06
2.8598568e-06
4.3885148e-06
4.4817852e-06
3.6716074e-06
7.9923619e-06
1.8933401e-05
3.6460766e-05
5.9735568e-05
8.3503272e-05
9.6944744e-05
8.8771837e-05
5.9270776e-05
3.1901573e-05
1.6047746e-05
2.4624038e-05
3.5243313e-05
5.3766624e-05
7.5910305e-05
8.6755338e-05
7.5643415e-05
5.3545414e-05
3.247089e-05
1.6343755e-05
7.5709048e-06
5.9314344e-06
5.0573499e-06
4.2032237e-06
2.2369774e-06
3.30723e-06
4.4739498e-06
4.5479649e-06
3.7281714e-06
7.2980803e-06
1.7803412e-05
3.4568587e-05
5.8309022e-05
8.4569021e-05
9.8902384e-05
9.106463e-05
6.1269032e-05
3.144454e-05
1.738901e-05
2.248494e-05
3.4232043e-05
5.4866213e-05
7.7336248e-05
8.829887e-05
7.7177569e-05
5.6334528e-05
3.483858e-05
1.7889627e-05
8.6128986e-06
6.507671e-06
5.0420475e-06
4.2590871e-06
3.4323028e-06
3.780446e-06
4.5477301e-06
4.7274349e-06
3.8896763e-06
8.3556113e-06
1.9096983e-05
3.5941868e-05
6.0871687e-05
8.8219125e-05
0.00010083695
9.085116e-05
5.8998653e-05
2.8637541e-05
1.7347395e-05
2.2710193e-05
3.1784928e-05
5.293686e-05
7.6492462e-05
8.9351761e-05
8.0719367e-05
6.2161918e-05
4.0232025e-05
2.2074661e-05
1.1109963e-05
6.7851953e-06
6.0322324e-06
4.6938639e-06
4.6624112e-06
4.6276169e-06
4.4028055e-06
3.9870037e-06
5.0520097e-06
1.1322721e-05
2.2856543e-05
4.1166312e-05
6.7915411e-05
9.3882788e-05
0.00010183605
8.6942615e-05
5.2445263e-05
2.9100443e-05
1.3530943e-05
2.1669427e-05
2.840161e-05
4.8158801e-05
7.2741456e-05
8.9452329e-05
8.5472502e-05
7.0295337e-05
4.8842586e-05
2.9453104e-05
1.6581005e-05
8.7865768e-06
5.3479143e-06
4.4794629e-06
4.6262967e-06
4.6687984e-06
4.4880005e-06
4.6614151e-06
8.6324797e-06
1.6748957e-05
3.0137662e-05
5.1352047e-05
7.8703444e-05
9.9614943e-05
0.00010032245
7.9989422e-05
4.5730335e-05
2.6407005e-05
1.3777676e-05
2.4745871e-05
4.1236448e-05
6.5135764e-05
8.7293804e-05
8.9494898e-05
7.9189043e-05
6.0641115e-05
4.0481627e-05
2.5647025e-05
1.5926105e-05
9.91836e-06
6.6640256e-06
5.3370723e-06
5.2395422e-06
6.3643638e-06
9.3952824e-06
1.58771e-05
2.6206445e-05
4.2902642e-05
6.6458963e-05
9.076409e-05
0.00010283392
9.4917109e-05
6.7398024e-05
3.3994823e-05
2.2778812e-05
2.1522975e-05
3.3489827e-05
5.3939266e-05
8.0827274e-05
9.1122597e-05
8.7679466e-05
7.4617022e-05
5.5931519e-05
3.9444159e-05
2.7651513e-05
2.0154424e-05
1.544593e-05
1.3058996e-05
1.2932367e-05
1.5169232e-05
2.0185815e-05
2.8924087e-05
4.2040743e-05
6.1445258e-05
8.3579324e-05
9.9684179e-05
0.0001006126
8.2885441e-05
5.1269202e-05
2.7386917e-05
1.93157e-05
1.9767909e-05
2.6241643e-05
4.0699774e-05
6.8189002e-05
8.7119868e-05
9.1984842e-05
8.6494826e-05
7.3672217e-05
5.7588009e-05
4.4499736e-05
3.5533306e-05
3.0183976e-05
2.75556e-05
2.7710217e-05
3.098314e-05
3.7705652e-05
4.8460662e-05
6.3457538e-05
8.2064523e-05
9.6515637e-05
0.00010088916
9.0144679e-05
6.4990317e-05
3.7986198e-05
1.9452799e-05
7.414614e-06
6.4010099e-06
2.0465669e-05
2.7872154e-05
5.0276749e-05
7.5162195e-05
8.9648074e-05
9.2496982e-05
8.7783499e-05
7.7531995e-05
6.572314e-05
5.642042e-05
5.0825617e-05
4.858166e-05
4.9490487e-05
5.3717544e-05
6.1350307e-05
7.2207737e-05
8.5125112e-05
9.5937494e-05
9.9398652e-05
9.2344399e-05
7.2193416e-05
4.5491334e-05
1.6322188e-05
8.8229984e-06
1.5683207e-05
1.8248431e-05
3.3032066e-05
5.4533473e-05
7.7262456e-05
8.945893e-05
9.3620856e-05
9.134608e-05
8.5590853e-05
7.8838616e-05
7.3936386e-05
7.2119629e-05
7.3330523e-05
7.7357323e-05
8.3653305e-05
9.0794163e-05
9.6751936e-05
9.7742866e-05
9.0859231e-05
7.35675e-05
4.8351606e-05
2.5677744e-05
1.9192992e-05
1.0147951e-05
1.9716033e-05
3.4618661e-05
5.4329182e-05
7.4022178e-05
8.663396e-05
9.3164903e-05
9.4365815e-05
9.3455169e-05
9.1777835e-05
9.097804e-05
9.1602665e-05
9.3443201e-05
9.5777763e-05
9.6831794e-05
9.4429068e-05
8.5621401e-05
6.8892731e-05
4.6249375e-05
2.5501978e-05
1.7846864e-05
8.8806346e-06
1.0584104e-05
1.9870603e-05
3.2572661e-05
4.8788069e-05
6.526169e-05
7.8932503e-05
8.6109941e-05
9.0768862e-05
9.2841666e-05
9.3451463e-05
9.3337525e-05
9.2256921e-05
8.9410007e-05
8.3354091e-05
7.2520667e-05
5.6512845e-05
3.8502615e-05
2.2947731e-05
1.6557311e-05
9.2619072e-06
9.4179862e-06
1.353868e-05
2.966543e-05
3.898638e-05
5.1090959e-05
6.224604e-05
6.9658549e-05
7.4746849e-05
7.6526971e-05
7.5698928e-05
7.2163076e-05
6.5609874e-05
5.6009062e-05
4.40652e-05
3.2696522e-05
2.3257228e-05
1.3846322e-05
8.4818147e-06
9.8327678e-06
1.7050972e-05
2.3071962e-05
2.6108826e-05
3.5480762e-05
3.9724693e-05
4.3829037e-05
4.5132718e-05
4.4113752e-05
4.0417512e-05
3.4119463e-05
2.8152623e-05
2.2902635e-05
1.7691979e-05
1.191601e-05
1.3126445e-05
8.6522893e-06
2.035717e-05
2.184474e-05
2.5968501e-05
2.5358509e-05
2.4339401e-05
2.271864e-05
2.118295e-05
2.0276136e-05
1.7051533e-05
6.1114548e-06
7.8641391e-06
1.5404497e-05
1.6086255e-05
1.5451904e-05
1.1547559e-05
7.8411576e-06
1.8013641e-05
2.656467e-05
2.743512e-05
2.8256987e-05
2.8437948e-05
2.823683e-05
2.6024871e-05
1.7557902e-05
1.7493154e-05
3.1690053e-05
3.9304227e-05
4.5496974e-05
5.0484607e-05
5.2654228e-05
5.2597515e-05
5.1548637e-05
5.17501e-05
4.9339346e-05
3.8684534e-05
3.6860339e-05
1.2543308e-05
9.927362e-06
8.1878516e-06
3.185822e-05
4.8494716e-05
6.4679637e-05
7.7947991e-05
8.7167271e-05
9.2458329e-05
9.3448703e-05
9.0337378e-05
8.3927909e-05
7.7150892e-05
7.3276815e-05
6.6999381e-05
6.2695851e-05
5.2358588e-05
2.2383104e-05
1.9839419e-05
1.0938521e-05
3.3369088e-05
5.9835889e-05
8.4658833e-05
0.00010209792
0.00011305522
0.00011951284
0.00012298837
0.00012405539
0.00012246277
0.00011755455
0.00010917326
9.9842861e-05
9.2321386e-05
8.4996062e-05
8.3927323e-05
5.7491917e-05
3.3967609e-05
1.4180488e-05
1.1364244e-05
3.6548861e-05
6.9999324e-05
9.7930497e-05
0.0001139104
0.00012182461
0.00012544639
0.00012667929
0.00012670681
0.00012694136
0.00012771271
0.00012854767
0.00012735016
0.00012194972
0.00011415129
0.0001044052
0.00010113082
9.4151155e-05
7.070617e-05
3.6128261e-05
1.4154352e-05
9.2321308e-06
3.5074534e-05
7.002347e-05
9.8091051e-05
0.00011113806
0.00011579196
0.0001169794
0.00011509896
0.00011102222
0.00010662635
0.00010320608
0.00010298101
0.00010685437
0.00011356134
0.00011971065
0.00012209552
0.00011822997
0.00011249699
0.00011166551
0.00010265372
7.2536999e-05
3.4197543e-05
1.3422098e-05
2.328954e-05
5.8621668e-05
9.0535944e-05
0.00010299932
0.00010715627
0.00010946354
0.00010734911
0.00010151712
9.2779174e-05
8.4048633e-05
7.7756319e-05
7.4873907e-05
7.6220817e-05
8.3136125e-05
9.5106003e-05
0.00010776488
0.00011667659
0.00011806416
0.00011854927
0.00011823652
0.00010417665
6.4127434e-05
3.4632835e-05
1.104979e-05
1.9944199e-05
5.3148025e-05
8.1320187e-05
9.1797157e-05
9.7374146e-05
0.00010466942
0.00010727687
0.00010065917
8.757715e-05
7.3669129e-05
6.1219534e-05
5.2167509e-05
4.7368912e-05
4.7040277e-05
5.1736864e-05
6.2877769e-05
8.0213109e-05
9.8711374e-05
0.00011226005
0.00011922188
0.00012390408
0.00012170239
9.334034e-05
5.5443261e-05
2.1901379e-05
3.7262782e-05
6.2538324e-05
7.72091e-05
8.7067713e-05
0.00010038395
0.00011008787
0.00010527895
8.8981082e-05
6.9635044e-05
5.1601365e-05
3.8034224e-05
2.9496261e-05
2.5322862e-05
2.5035275e-05
2.844139e-05
3.6701821e-05
5.2145766e-05
7.4229137e-05
9.6118481e-05
0.00011286935
0.00012403016
0.00012958982
0.00011366407
7.5942676e-05
3.7287584e-05
1.52544e-05
9.8978583e-06
3.9379901e-05
6.295905e-05
7.6245037e-05
9.2561647e-05
0.00011030338
0.00011305343
9.7079399e-05
7.3802357e-05
5.0987573e-05
3.357179e-05
2.2457195e-05
1.6763711e-05
1.4444118e-05
1.3650585e-05
1.5081711e-05
2.0024738e-05
3.1340255e-05
5.1519119e-05
7.7408596e-05
0.00010101425
0.00011958703
0.00013228349
0.00012608656
9.3409668e-05
4.889833e-05
2.6386478e-05
2.1283281e-05
4.8649117e-05
6.2418978e-05
7.7571049e-05
0.00010211255
0.00011833167
0.00011008714
8.6616764e-05
5.959315e-05
3.7695529e-05
2.3152219e-05
1.5311928e-05
1.2749482e-05
9.4000214e-06
9.5918206e-06
1.0259484e-05
1.1984542e-05
1.8796721e-05
3.4973501e-05
6.0582562e-05
8.8744592e-05
0.00011306991
0.00013206474
0.00013329229
0.0001064228
5.981157e-05
3.0212394e-05
1.2388943e-05
4.7800325e-05
6.0386312e-05
8.4436583e-05
0.00011321478
0.00012233657
0.00010552888
7.7386241e-05
5.0276201e-05
3.0309614e-05
1.7631337e-05
1.1311012e-05
7.3544831e-06
6.5890848e-06
6.6496458e-06
7.2054433e-06
9.7279846e-06
1.2565364e-05
2.4875355e-05
4.8445377e-05
7.850827e-05
0.00010688797
0.00013100227
0.00013750875
0.00011517838
6.9867875e-05
3.5553099e-05
7.9736474e-06
2.745749e-05
4.4226387e-05
6.276696e-05
9.3142141e-05
0.00012119476
0.00012330754
0.00010218078
7.2650816e-05
4.5921526e-05
2.661406e-05
1.3351911e-05
7.5403744e-06
6.796393e-06
3.4705715e-06
3.4271831e-06
5.3728459e-06
7.3494761e-06
1.0105589e-05
1.9857262e-05
4.1565847e-05
7.2036813e-05
0.00010328498
0.00013083758
0.00014022857
0.00011992543
7.5641748e-05
4.1129577e-05
1.6200668e-05
3.1569668e-05
4.2810441e-05
6.6534762e-05
9.9554093e-05
0.00012593192
0.00012398167
0.00010184251
7.2413571e-05
4.5493499e-05
2.5608178e-05
1.1743466e-05
7.0664345e-06
5.8353168e-06
2.2999606e-06
3.6175405e-06
5.2679227e-06
6.9390034e-06
9.2551504e-06
1.8605425e-05
3.9757221e-05
7.0265374e-05
0.00010369805
0.00013272351
0.0001418667
0.0001206501
7.5740004e-05
3.4325044e-05
1.7449401e-05
2.7241501e-05
4.1635629e-05
6.8215348e-05
0.00010267457
0.00012818807
0.00012568818
0.00010511126
7.6561157e-05
4.9146704e-05
2.7979924e-05
1.3397206e-05
6.9975341e-06
5.8673022e-06
4.2080612e-06
4.277893e-06
5.3098587e-06
7.3434916e-06
9.94767e-06
2.1034066e-05
4.2926066e-05
7.3842128e-05
0.00010875522
0.00013675749
0.00014204298
0.00011730274
7.0838253e-05
3.5201078e-05
1.7412932e-05
2.6236401e-05
3.9108903e-05
6.7492592e-05
0.00010216681
0.00012826011
0.00012846399
0.00011122878
8.4938231e-05
5.7394749e-05
3.4755821e-05
1.8089309e-05
8.9131714e-06
6.2391769e-06
5.8888412e-06
5.6728692e-06
5.9715369e-06
8.308915e-06
1.3790472e-05
2.7768249e-05
5.1413138e-05
8.3501224e-05
0.00011831343
0.000141513
0.00013927806
0.0001088276
6.0931897e-05
3.5199041e-05
1.4862562e-05
2.2219678e-05
3.5096042e-05
6.3204992e-05
9.7671104e-05
0.0001260892
0.00013110521
0.00011901981
9.6862428e-05
7.0475111e-05
4.7070386e-05
2.8492271e-05
1.5655719e-05
9.2204314e-06
7.4312538e-06
7.3339037e-06
8.9200149e-06
1.3227709e-05
2.2801057e-05
4.0246974e-05
6.637732e-05
9.9252512e-05
0.00013018387
0.00014419658
0.00013247248
9.7085487e-05
5.0296034e-05
2.5694915e-05
1.4016272e-05
3.028782e-05
5.5847869e-05
8.8959164e-05
0.00012064628
0.00013185814
0.00012726748
0.00011078004
8.7766121e-05
6.4767092e-05
4.5611579e-05
3.0672758e-05
2.0673094e-05
1.5936434e-05
1.5495068e-05
1.8728891e-05
2.6203797e-05
3.9610277e-05
6.0375225e-05
8.8154819e-05
0.00011831746
0.00014004412
0.00014199311
0.0001198794
7.7241868e-05
3.4984919e-05
2.1785275e-05
2.5002403e-05
4.5858023e-05
7.5638893e-05
0.00011065481
0.00012850631
0.00013244892
0.00012385098
0.00010729994
8.703359e-05
6.8544296e-05
5.3649215e-05
4.2766117e-05
3.6585293e-05
3.563061e-05
3.9974395e-05
4.9777099e-05
6.5743726e-05
8.769066e-05
0.00011312199
0.00013474545
0.00014309314
0.00013134757
9.9483502e-05
5.6971623e-05
2.8791244e-05
1.9063355e-05
2.0601517e-05
3.4597234e-05
5.7784243e-05
9.4676641e-05
0.00011897575
0.00013131285
0.0001329064
0.00012469366
0.00011067013
9.5057074e-05
8.1742881e-05
7.2158211e-05
6.6750789e-05
6.6277486e-05
7.1316299e-05
8.1835636e-05
9.7369479e-05
0.00011589934
0.00013287087
0.00014142076
0.00013546063
0.00011282088
7.7006859e-05
4.1198383e-05
2.0458355e-05
7.8794283e-06
7.2956468e-06
2.3620259e-05
3.7557725e-05
7.1793786e-05
0.00010183539
0.00012143092
0.00013221146
0.0001351469
0.00012972136
0.00012056611
0.00011077767
0.00010354178
9.9934039e-05
0.00010045485
0.00010526139
0.00011393119
0.0001249538
0.00013530914
0.00014075128
0.0001363992
0.00011924908
8.7627265e-05
4.5714317e-05
1.6567182e-05
9.730446e-06
1.6198324e-05
2.0872687e-05
4.4229454e-05
7.5859023e-05
0.00010168765
0.00011951068
0.00013189466
0.00013734719
0.00013651582
0.00013308385
0.00012937413
0.00012737114
0.00012792094
0.00013082146
0.00013512962
0.00013915057
0.00014005037
0.00013421557
0.00011861551
9.0607012e-05
5.2838686e-05
2.426538e-05
1.9720302e-05
1.0586184e-05
2.174322e-05
4.4318451e-05
7.1045174e-05
9.5560883e-05
0.00011303427
0.00012719053
0.00013503315
0.00013914326
0.00014037566
0.00014056146
0.00014072148
0.00014084689
0.00014003517
0.00013658848
0.00012809881
0.00011163337
8.4650119e-05
5.0831056e-05
2.5091103e-05
1.7755481e-05
9.4020066e-06
1.0676372e-05
2.0858718e-05
3.6181599e-05
6.3260767e-05
8.1529168e-05
9.9932362e-05
0.00011286478
0.00012210583
0.000128235
0.0001308266
0.00013068491
0.00012781098
0.00012155225
0.00011051331
9.3118809e-05
6.9049108e-05
4.2502651e-05
2.3537291e-05
1.7946083e-05
9.5428982e-06
9.5640508e-06
1.4357346e-05
3.31427e-05
4.6166819e-05
6.1028469e-05
7.7454145e-05
8.6550116e-05
9.4630233e-05
9.8274989e-05
9.7740638e-05
9.2590853e-05
8.2844647e-05
6.9113494e-05
5.2673963e-05
3.6756693e-05
2.4387502e-05
1.3894848e-05
9.1210464e-06
1.0539112e-05
1.7558432e-05
2.4786164e-05
2.7484105e-05
4.1007394e-05
4.7780469e-05
5.3512473e-05
5.5069227e-05
5.3547936e-05
4.861943e-05
4.1018043e-05
3.3025066e-05
2.5697398e-05
1.9839286e-05
1.2499041e-05
1.4132934e-05
8.6864477e-06
1.9849318e-05
2.2596959e-05
3.0695754e-05
3.1676022e-05
3.0942886e-05
2.847992e-05
2.5070055e-05
2.2654659e-05
1.7729631e-05
6.7885503e-06
8.3649932e-06
1.5778009e-05
1.6349583e-05
1.5719681e-05
1.2828257e-05
8.7738059e-06
2.0671472e-05
3.1455922e-05
3.3415988e-05
3.5152392e-05
3.5605564e-05
3.4050195e-05
2.7952492e-05
1.8614009e-05
1.8325285e-05
3.25896e-05
4.1021786e-05
4.8057305e-05
5.4303791e-05
5.8152055e-05
6.0670156e-05
6.3558903e-05
6.7194541e-05
6.6687155e-05
5.3940801e-05
4.7371623e-05
1.4926453e-05
1.0412145e-05
8.4538894e-06
3.3562597e-05
5.2272599e-05
6.9709004e-05
8.3441323e-05
9.2817292e-05
9.8125082e-05
9.9002062e-05
9.6025249e-05
9.0781847e-05
8.7022239e-05
8.7692038e-05
8.7170829e-05
8.3626335e-05
7.0193843e-05
2.9040801e-05
2.1247486e-05
1.1479184e-05
3.7881817e-05
6.9429359e-05
9.7977354e-05
0.00011783598
0.00013037724
0.0001377759
0.00014150746
0.0001418808
0.00013859212
0.00013140789
0.00012121981
0.00011193732
0.00010789019
0.00010558569
0.0001070784
7.7624965e-05
4.4394816e-05
1.6199232e-05
1.1985576e-05
4.4116793e-05
8.5900438e-05
0.00011955229
0.00013890065
0.00014855331
0.00015320936
0.0001553327
0.00015613115
0.00015640101
0.00015616147
0.00015448232
0.0001495768
0.00014043748
0.00013069826
0.00012259485
0.00012341647
0.0001189315
9.1549318e-05
4.63674e-05
1.5620705e-05
9.8960125e-06
4.4290362e-05
8.9378646e-05
0.00012387831
0.00013971913
0.00014511164
0.00014678004
0.00014664393
0.00014476351
0.00014175454
0.00013912021
0.00013896685
0.000141872
0.00014635178
0.00014864322
0.00014618158
0.00013919037
0.00013445527
0.00013669808
0.00012788827
9.1844859e-05
4.2199382e-05
1.3478212e-05
2.9607649e-05
7.7980444e-05
0.00011763873
0.00013190114
0.00013502596
0.00013700221
0.00013814354
0.00013505098
0.00012805278
0.00011963748
0.00011259028
0.00010912524
0.00011072592
0.00011814344
0.00012959955
0.00013999723
0.00014446159
0.00014303105
0.00014456545
0.00014548955
0.00012860381
7.9682459e-05
3.85936e-05
1.2035957e-05
2.1140485e-05
7.1625732e-05
0.00010875389
0.00011999783
0.00012242112
0.0001283791
0.00013475764
0.00013339648
0.00012332251
0.00010912706
9.5212939e-05
8.4453333e-05
7.826135e-05
7.7381271e-05
8.2969261e-05
9.611817e-05
0.00011471969
0.00013218747
0.00014223332
0.00014779323
0.0001529805
0.00014928771
0.00011432773
6.2758825e-05
2.4004778e-05
4.8180225e-05
8.6630582e-05
0.00010391146
0.00010910427
0.00012004138
0.00013435478
0.00013767584
0.0001262031
0.0001066612
8.60766e-05
6.8865612e-05
5.6897571e-05
5.0374075e-05
4.9037495e-05
5.29446e-05
6.379127e-05
8.3295558e-05
0.00010831454
0.00013015425
0.00014480179
0.00015520893
0.0001595347
0.00013804538
8.7434267e-05
3.9843843e-05
1.6065068e-05
1.0333435e-05
5.6290195e-05
8.8282976e-05
9.6986611e-05
0.00010847568
0.0001302333
0.00014294223
0.00013486322
0.00011267692
8.6857714e-05
6.4134182e-05
4.7168299e-05
3.6367403e-05
3.1413923e-05
3.0480696e-05
3.2930213e-05
4.0423806e-05
5.6527168e-05
8.2554448e-05
0.00011189452
0.00013597988
0.0001536586
0.00016431633
0.00015268699
0.0001080771
5.1457695e-05
2.8052619e-05
2.2640844e-05
6.9104856e-05
8.3563292e-05
9.1802392e-05
0.00011659358
0.00014275789
0.00014595035
0.00012675321
9.8048777e-05
7.0541445e-05
4.7775675e-05
3.1686467e-05
2.1791338e-05
1.7745455e-05
1.7387193e-05
2.0842573e-05
2.5980577e-05
3.806007e-05
6.1511126e-05
9.3589785e-05
0.00012471119
0.00014956873
0.00016620717
0.00016144186
0.00012302064
6.2481727e-05
3.17918e-05
1.4818151e-05
6.7923489e-05
7.5733609e-05
9.4707698e-05
0.00012994337
0.00015168656
0.00014455858
0.00011837594
8.7479439e-05
5.9558971e-05
3.5299183e-05