/*--------------------------------*- C++ -*----------------------------------*\
| =========                 |                                                 |
| \\      /  F ield         | OpenFOAM: The Open Source CFD Toolbox           |
|  \\    /   O peration     | Version:  2406                                  |
|   \\  /    A nd           | Website:  www.openfoam.com                      |
|    \\/     M anipulation  |                                                 |
\*---------------------------------------------------------------------------*/
FoamFile
{
    version     2.0;
    format      ascii;
    arch        "LSB;label=32;scalar=64";
    class       volScalarField;
    location    "1000";
    object      p;
}
// * * * * * * * * * * * * * * * * * * * * * * * * * * * * * * * * * * * * * //

dimensions      [0 2 -2 0 0 0 0];

internalField   nonuniform List<scalar> 
150387
(
0.0022650464
0.0017848112
0.00062180317
0.00036614496
0.00033810508
0.00058133277
0.0020497832
0.0022346575
0.0029191238
0.00075000367
-0.00056520615
-0.0021849173
-0.0034533968
-0.004507007
-0.0049531975
-0.0049286617
-0.004431074
-0.0033240001
-0.0018957481
-0.00071553003
0.00053916228
0.0014842429
-0.00079674397
-0.0034482889
-0.0057365053
-0.0078042909
-0.0094389221
-0.010560855
-0.010978392
-0.010792325
-0.01006739
-0.008838544
-0.0072243724
-0.0052674139
-0.0032170912
-0.00083848125
0.0015691973
0.0017984202
0.00049119204
-0.0023536006
-0.0055648327
-0.0086943345
-0.011528798
-0.013994568
-0.015981424
-0.017334973
-0.017877037
-0.017677209
-0.016800087
-0.015297038
-0.013272934
-0.010813309
-0.0080433283
-0.0050658863
-0.0023478327
0.00020114359
0.0027236523
0.00071130555
-0.002850794
-0.0066522465
-0.010586584
-0.014362587
-0.017811366
-0.020799381
-0.023193445
-0.024836128
-0.025519748
-0.02527492
-0.024198017
-0.022375007
-0.019926557
-0.016955302
-0.013626431
-0.010074248
-0.0064794942
-0.0031414122
-0.00020659935
0.0010346758
-0.0026134524
-0.0069156192
-0.011459515
-0.016059222
-0.020504687
-0.024636998
-0.028273307
-0.031252559
-0.03335912
-0.034288916
-0.033980653
-0.032610262
-0.030324873
-0.027295433
-0.023685589
-0.019678675
-0.015428054
-0.0111345
-0.0068933016
-0.0031760805
0.00053619901
0.0018985341
-0.0016429198
-0.0061788819
-0.011157846
-0.016384869
-0.021688937
-0.02690764
-0.031858248
-0.036334058
-0.040070921
-0.042819531
-0.044184147
-0.043852586
-0.042112017
-0.039207291
-0.035404256
-0.030965375
-0.026128936
-0.021081083
-0.016014518
-0.011043041
-0.0064245316
-0.0021239439
0.00042547506
0.0036246883
-0.00015182447
-0.00458333
-0.0097800368
-0.015403897
-0.021311937
-0.027390274
-0.033478591
-0.039420048
-0.044992416
-0.049816651
-0.053420281
-0.055344321
-0.05506088
-0.052887997
-0.049191867
-0.044362007
-0.03880929
-0.032911168
-0.026902959
-0.020978851
-0.015239309
-0.009912916
-0.0050630356
-0.0012519392
0.0015034434
-0.0024014538
-0.0074993312
-0.013247769
-0.019471964
-0.026084848
-0.032981979
-0.040073022
-0.04725174
-0.054204791
-0.060335529
-0.064982508
-0.067531867
-0.067439335
-0.06480904
-0.060196744
-0.054119691
-0.047167602
-0.039915918
-0.032743159
-0.025842871
-0.019275797
-0.013224771
-0.0077060008
-0.0030911547
0.00098050635
0.00022056135
-0.004586324
-0.01021195
-0.016438898
-0.02324026
-0.030538284
-0.038296961
-0.04652565
-0.055110027
-0.063500714
-0.070798144
-0.076213958
-0.07924789
-0.07943654
-0.076600026
-0.07133118
-0.064117198
-0.055699786
-0.046911927
-0.038382736
-0.030407121
-0.022983095
-0.016198392
-0.010099454
-0.004812569
-0.00059019727
0.003387155
-0.0012329358
-0.0064821013
-0.012554814
-0.019209752
-0.026537484
-0.034483947
-0.043114341
-0.05250642
-0.062429538
-0.071952555
-0.079963214
-0.085798723
-0.089059595
-0.089350763
-0.086440797
-0.080891178
-0.073058651
-0.063552962
-0.053372825
-0.043482883
-0.034412225
-0.02615886
-0.018708557
-0.012130155
-0.0064140415
-0.0021456806
0.0021338275
-0.0026560525
-0.0080780433
-0.014462639
-0.02145313
-0.029220656
-0.037732664
-0.047143507
-0.057562866
-0.068509675
-0.078687116
-0.087109981
-0.093221972
-0.096663319
-0.096860912
-0.093778165
-0.087977751
-0.079815692
-0.069721579
-0.058565572
-0.047563053
-0.037527378
-0.028574931
-0.020583032
-0.013627432
-0.0076031123
-0.002819109
0.0006198572
0.0012456299
-0.0036410099
-0.0092696772
-0.015831758
-0.023054243
-0.031142851
-0.040073042
-0.050071235
-0.061221709
-0.07272898
-0.083187277
-0.091823888
-0.098113541
-0.10185139
-0.10185504
-0.098357734
-0.092319137
-0.083903579
-0.07350394
-0.061836399
-0.050105352
-0.039431879
-0.029988758
-0.02167298
-0.0144906
-0.0083782753
-0.0034507917
0.00037346563
0.00077026887
-0.0039196899
-0.0099138125
-0.016568208
-0.023913242
-0.03217086
-0.041314123
-0.051619927
-0.063086466
-0.074671777
-0.085081126
-0.093802205
-0.10117694
-0.10491532
-0.10307743
-0.099775899
-0.093606722
-0.08506796
-0.07454577
-0.062717618
-0.050764832
-0.039933724
-0.030397696
-0.022030241
-0.014775626
-0.0084947366
-0.0036511568
-0.00013620626
0.00084084413
-0.0040244352
-0.0099905084
-0.016651708
-0.023964124
-0.032186734
-0.041254937
-0.051445528
-0.062638085
-0.073774215
-0.083745623
-0.091998626
-0.098742224
-0.1046341
-0.10151795
-0.098189596
-0.092176085
-0.083766641
-0.073334223
-0.061661543
-0.049972748
-0.039372605
-0.029981187
-0.021723033
-0.014530387
-0.0084512798
-0.0034765711
-4.550321e-06
0.0015822431
-0.0034581845
-0.0094615292
-0.016002204
-0.023134931
-0.031075756
-0.039727008
-0.04938162
-0.059920099
-0.0704033
-0.079828627
-0.087573565
-0.093247973
-0.096266702
-0.096373652
-0.093712408
-0.08817321
-0.080192278
-0.07019198
-0.058983327
-0.047846438
-0.037700661
-0.028652407
-0.020676204
-0.013677405
-0.007776622
-0.0030275236
0.00021710162
0.0025533714
-0.0025456514
-0.0082820714
-0.014567185
-0.021380181
-0.028869606
-0.036959536
-0.045871323
-0.055448619
-0.065051446
-0.073771482
-0.080901592
-0.086030207
-0.088780049
-0.089117448
-0.086854318
-0.081832448
-0.074409398
-0.065062239
-0.054665473
-0.044406368
-0.034976301
-0.026487899
-0.018954896
-0.012301196
-0.0066591452
-0.00267449
0.00043592678
0.0028693043
-0.0013579629
-0.0065971086
-0.012506617
-0.018904535
-0.025852546
-0.033277095
-0.04124198
-0.049683642
-0.058173136
-0.065993391
-0.072440124
-0.077027255
-0.079511022
-0.079964727
-0.078057339
-0.073560159
-0.066805433
-0.058336982
-0.049066827
-0.039924398
-0.031407646
-0.02364576
-0.016684355
-0.010511753
-0.0052205376
-0.0015414693
-6.0854729e-05
-0.00456773
-0.010025959
-0.015881528
-0.022222818
-0.028884924
-0.035882647
-0.043134575
-0.050373771
-0.057097356
-0.062728026
-0.066782201
-0.068995183
-0.069492897
-0.067894259
-0.063938186
-0.057987018
-0.050642964
-0.042677054
-0.034756523
-0.027247687
-0.020294738
-0.013985669
-0.0083880738
-0.0036035735
-0.00042459119
0.0013542505
-0.0023179969
-0.0072099881
-0.012442737
-0.018125854
-0.024031193
-0.030123223
-0.036276225
-0.042298135
-0.047857299
-0.052538422
-0.055950723
-0.057854807
-0.058311719
-0.057030952
-0.053705946
-0.048730424
-0.0426272
-0.035980916
-0.029258155
-0.022754296
-0.016636813
-0.011010454
-0.0061450763
-0.0020680519
0.0018133373
0.00017195681
-0.0041388297
-0.0087394655
-0.013756886
-0.018935697
-0.024208846
-0.029422999
-0.034415261
-0.03893997
-0.042717209
-0.045465502
-0.046997922
-0.047312475
-0.046339874
-0.043706218
-0.039715668
-0.034787355
-0.029333897
-0.023697778
-0.018134426
-0.01283198
-0.0079042387
-0.0035456582
-0.00078066651
0.0024231631
-0.0013467
-0.0050355809
-0.0093558392
-0.01381314
-0.018338123
-0.02276547
-0.026935777
-0.030650445
-0.033711807
-0.0359176
-0.037130982
-0.037324602
-0.03655136
-0.034513555
-0.031380519
-0.027438494
-0.022990027
-0.018289615
-0.013586949
-0.0090475724
-0.0049935658
-0.0014349532
4.7598384e-05
0.0015010069
-0.0016638764
-0.0051334776
-0.0088996161
-0.012706533
-0.016426837
-0.019921146
-0.023004853
-0.025528631
-0.027338464
-0.028332884
-0.028472502
-0.027841427
-0.026270884
-0.023799104
-0.020642459
-0.017014634
-0.013111569
-0.0091817591
-0.0055307306
-0.0020912848
0.00094140333
0.0011735095
-0.0015556313
-0.0044075062
-0.0075085242
-0.010586087
-0.0134933
-0.016057377
-0.018158912
-0.019666436
-0.020501982
-0.020633174
-0.020127248
-0.018915805
-0.016977561
-0.014483245
-0.01156804
-0.0083357547
-0.0052894616
-0.0022557863
0.00023065882
0.0014754062
-0.00052136726
-0.0030721086
-0.0054184231
-0.0077404974
-0.0098002684
-0.011535673
-0.012801187
-0.013534661
-0.013707199
-0.013351959
-0.012427299
-0.010887231
-0.0089141323
-0.0066505566
-0.0039093941
-0.0017482545
0.0011529322
0.0021077416
0.00038447395
-0.0010738856
-0.002889709
-0.004583255
-0.0059997553
-0.0070041657
-0.0076104451
-0.0077766889
-0.0074727604
-0.0067655693
-0.005564325
-0.0041523255
-0.0026141072
-0.00077738259
-0.00020759353
0.0024544694
0.00049726524
-0.00081378472
-0.0015704478
-0.0022256035
-0.002743357
-0.0028843041
-0.0026268024
-0.0023554972
-0.0014351268
-0.00052430371
0.0011482918
0.0019912344
0.0013739565
0.0010460065
0.00087200515
0.0019715875
0.00080388955
0.0027445547
0.0026293988
0.0023422242
0.00044791171
0.00016594184
0.00010829331
0.00025818521
0.0021692296
0.0026028384
0.0027707663
-0.00057485705
-0.0017264248
-0.0032843449
-0.0045150148
-0.0056445194
-0.0059517267
-0.0057738904
-0.005119048
-0.0038196028
-0.0023460548
-0.0012042975
0.00066926884
0.0027516754
0.0026588735
0.0010104876
-0.0023397002
-0.0048257393
-0.0071328599
-0.0091873179
-0.010709104
-0.011654183
-0.011935663
-0.011630749
-0.010785231
-0.009422499
-0.0077775234
-0.0056575233
-0.0039161325
-0.00095843509
0.0017714253
0.0028706484
-0.0010410113
-0.0037325492
-0.0072923435
-0.010430042
-0.013203409
-0.015579393
-0.017384374
-0.018583588
-0.01903237
-0.018734817
-0.017753939
-0.016111895
-0.013949979
-0.011326451
-0.0083544501
-0.0052556351
-0.0028399564
0.0005826812
0.0031891318
-0.00091543329
-0.0040989985
-0.008259549
-0.012339487
-0.01615759
-0.019618917
-0.022571362
-0.024819662
-0.026247275
-0.026797808
-0.02640694
-0.025189248
-0.023210066
-0.020610458
-0.017481598
-0.014022611
-0.010342221
-0.0064451587
-0.0033169265
0.00039438053
0.0036766858
-0.00067152541
-0.0039037116
-0.008623448
-0.013295494
-0.018021576
-0.022566164
-0.026750504
-0.030384256
-0.033245697
-0.035075103
-0.035783818
-0.035283257
-0.033738919
-0.031259895
-0.028030896
-0.024217535
-0.020032078
-0.015609082
-0.011228204
-0.0066708247
-0.0033552735
0.00045056712
0.0011700305
-0.0029040929
-0.0077806821
-0.012909339
-0.018314441
-0.023805439
-0.029185296
-0.034283547
-0.03885848
-0.042573262
-0.045055356
-0.046007844
-0.045362398
-0.043390276
-0.040242961
-0.036183843
-0.031485654
-0.026435904
-0.02119342
-0.01602108
-0.010913863
-0.0062173936
-0.0016795498
-5.3304226e-05
0.0038061513
-0.0018363331
-0.0060062355
-0.011482235
-0.017294086
-0.023427781
-0.029735843
-0.036093492
-0.042319942
-0.048086903
-0.052898087
-0.056253475
-0.057555723
-0.056773813
-0.054280685
-0.050298591
-0.045174328
-0.039317001
-0.03315107
-0.026921785
-0.020877937
-0.015027367
-0.0097672255
-0.0048314592
-0.0016713643
0.00053927542
-0.0036332372
-0.0090294302
-0.014977326
-0.0214502
-0.028314327
-0.03553406
-0.043027848
-0.050580015
-0.057705521
-0.063706114
-0.067955461
-0.069775398
-0.069040891
-0.066018905
-0.061125931
-0.054786163
-0.047559513
-0.040042379
-0.032623843
-0.025596741
-0.018906837
-0.012932053
-0.0072109684
-0.0030480744
0.00063358533
0.0042486854
-0.00076214895
-0.0058656025
-0.011775947
-0.018204673
-0.02527514
-0.032869834
-0.041045681
-0.049744385
-0.058649094
-0.067040027
-0.074036142
-0.078948349
-0.081204585
-0.080626344
-0.077342771
-0.071781791
-0.06435658
-0.055758021
-0.04679715
-0.038070061
-0.0299723
-0.022444094
-0.015715218
-0.0095122504
-0.0041420354
-8.3553883e-05
0.0030785823
-0.0023201398
-0.0076774643
-0.014099531
-0.020942925
-0.028553744
-0.036837793
-0.045932941
-0.055762877
-0.065837687
-0.075168198
-0.082831521
-0.088243949
-0.09080103
-0.090224926
-0.086829115
-0.080902509
-0.07277316
-0.063105976
-0.052865064
-0.042892779
-0.033752305
-0.02544549
-0.01805976
-0.011482988
-0.0055867484
-0.0023418603
0.0017473739
-0.0037789071
-0.0092406301
-0.015946059
-0.023112856
-0.031154535
-0.040009952
-0.049871277
-0.060613987
-0.071503067
-0.081404175
-0.089704396
-0.095477483
-0.098217595
-0.09745824
-0.093949557
-0.087639802
-0.079102301
-0.068766766
-0.057603727
-0.046644172
-0.036641195
-0.027695014
-0.019796999
-0.012900942
-0.0067005149
-0.0030271706
0.0013999541
0.0010610869
-0.0048629899
-0.010412387
-0.01718392
-0.024579722
-0.032905646
-0.042153633
-0.052542581
-0.063864364
-0.075122634
-0.085355853
-0.093897939
-0.098123419
-0.10161585
-0.10179994
-0.098200908
-0.091637434
-0.082857747
-0.072166114
-0.06046601
-0.048888532
-0.038341049
-0.028993677
-0.020834211
-0.013729592
-0.0077378133
-0.0036794906
0.0011248631
-0.00050015661
-0.0045934602
-0.01098544
-0.01772966
-0.025247596
-0.033697879
-0.043123186
-0.053756159
-0.065231629
-0.076412495
-0.086602579
-0.094995487
-0.10157357
-0.10516875
-0.10304409
-0.099033288
-0.092490403
-0.083637293
-0.072907197
-0.061075816
-0.049371429
-0.03871637
-0.02928292
-0.021036444
-0.013927917
-0.0074363658
-0.0033036226
0.00057774359
0.00062318199
-0.0049795099
-0.01087837
-0.017619297
-0.025070053
-0.033425531
-0.042717331
-0.053157511
-0.064272136
-0.075041675
-0.084718183
-0.092368503
-0.099095038
-0.10475628
-0.10164516
-0.096840524
-0.090481994
-0.081757788
-0.071183804
-0.059595325
-0.048205538
-0.037834633
-0.028596818
-0.020536387
-0.013466867
-0.0077155102
-0.0036926204
0.00092307622
0.0013672008
-0.0040662278
-0.010203246
-0.016742106
-0.023995872
-0.032066345
-0.040965943
-0.050814307
-0.061197418
-0.071318269
-0.080391691
-0.087839694
-0.093079519
-0.095659011
-0.094984326
-0.091914285
-0.085895196
-0.077580604
-0.06743438
-0.056447967
-0.045700292
-0.035862736
-0.027031371
-0.019304902
-0.01239431
-0.0067679959
-0.003143818
0.0015272251
0.002476084
-0.0030946578
-0.0089398108
-0.0152488
-0.022123755
-0.029716882
-0.037940043
-0.046938797
-0.056365868
-0.065618443
-0.073958214
-0.080734708
-0.085616209
-0.088096727
-0.087700011
-0.084754818
-0.079170614
-0.071393012
-0.061966639
-0.051886092
-0.042041617
-0.032953108
-0.024719583
-0.017456366
-0.010914988
-0.0053369627
-0.0025117111
0.0030270147
-0.001780582
-0.0071273114
-0.013152466
-0.019507735
-0.026523446
-0.033956029
-0.041959561
-0.050255056
-0.058427019
-0.065859682
-0.071961612
-0.076287189
-0.078554154
-0.078375998
-0.075747196
-0.070684069
-0.063639224
-0.055215869
-0.04627709
-0.037511617
-0.029324712
-0.021827456
-0.015131582
-0.0091481811
-0.0038288283
-0.0018121607
-0.00076980985
-0.00501239
-0.010614529
-0.016332399
-0.022693877
-0.029298097
-0.036282952
-0.043401433
-0.050383617
-0.056757519
-0.062054627
-0.065873545
-0.067928041
-0.067837847
-0.065542705
-0.061098406
-0.054968938
-0.047718524
-0.040027974
-0.032411255
-0.025187105
-0.018485886
-0.01241476
-0.0069856753
-0.0026360913
0.00053536624
0.0020300289
-0.0027593522
-0.0076923222
-0.01275266
-0.01842235
-0.024229067
-0.030266814
-0.036288883
-0.042120994
-0.04740943
-0.051814896
-0.05500897
-0.056756399
-0.05675436
-0.054865671
-0.051153758
-0.04604928
-0.040015326
-0.033559044
-0.027063121
-0.020787063
-0.014902964
-0.0094195731
-0.0050817029
-0.002300793
0.0020885597
0.0031197647
0.00027545098
-0.004359399
-0.0088802575
-0.013908501
-0.018955438
-0.024161465
-0.029241997
-0.034080952
-0.038403566
-0.041977336
-0.044554764
-0.045960413
-0.045984771
-0.044488693
-0.041511777
-0.037393682
-0.032483593
-0.027145481
-0.021663033
-0.016278687
-0.011195897
-0.0063329217
-0.0022368412
-0.00084156131
0.0020682266
-0.0017611649
-0.0048849354
-0.0094027651
-0.013715155
-0.018165084
-0.022459503
-0.026501275
-0.030053692
-0.03296109
-0.035029902
-0.036137889
-0.036153625
-0.034993826
-0.032666318
-0.029404052
-0.025454073
-0.021067852
-0.016472717
-0.011915518
-0.0073661962
-0.0039196882
-0.0014370065
0.001808765
-0.0018740801
-0.0048957861
-0.0087470947
-0.012474231
-0.016048849
-0.019415506
-0.022345524
-0.024741546
-0.026439159
-0.027354082
-0.027394443
-0.026485616
-0.024660181
-0.022059114
-0.018873185
-0.015287058
-0.011420365
-0.0074526474
-0.0042560109
-0.0020521988
0.0011563683
0.0016356082
-0.0017702972
-0.0040478689
-0.0071657548
-0.010207222
-0.013030564
-0.015470865
-0.01747789
-0.018884759
-0.019644289
-0.01969124
-0.018975299
-0.017560134
-0.015531302
-0.013043352
-0.010144728
-0.0068281839
-0.0041996637
-0.0020945022
0.00072783325
0.0016550743
-0.00016809826
-0.0031343813
-0.0049569793
-0.0072339585
-0.0091190838
-0.010787179
-0.011988234
-0.012691015
-0.012844016
-0.012321781
-0.011191873
-0.0095043642
-0.0074895357
-0.0053446838
-0.0022483729
-0.0015036386
0.0010054299
0.0024253767
0.00060065369
-0.00099354336
-0.0022975127
-0.0039401043
-0.005489925
-0.0064871015
-0.0070503079
-0.0070994023
-0.0063666483
-0.0054753831
-0.0042532565
-0.0033808293
-0.0024878753
0.00050041114
0.0028604104
0.00047149087
-0.0005153716
-0.001227233
-0.0019285568
-0.0024378233
-0.0025767431
-0.0024117204
-0.001915206
-0.0012727134
0.00095544227
0.00046053512
0.0026875223
0.00210053
0.001445392
0.0017121903
0.0016026829
0.0023995453
0.0024777877
0.002462235
0.00021954198
-3.510787e-05
-0.00011491467
-2.0076001e-05
0.0021101901
0.0024319473
0.0024630882
-0.00082024938
-0.0018726995
-0.003361298
-0.0046227512
-0.0058800593
-0.0062367857
-0.0060437377
-0.0053235236
-0.0038977934
-0.0024291214
-0.0013252772
0.00073996334
0.0029427178
0.002578465
0.00095798806
-0.0024729629
-0.0049657721
-0.0072414419
-0.0093195581
-0.010880232
-0.011848604
-0.012082342
-0.011722265
-0.010839396
-0.0094511938
-0.0078283212
-0.0057159488
-0.0040568559
-0.0010691197
0.0022287592
0.0028960667
-0.0012502301
-0.003844705
-0.0074447961
-0.010606728
-0.013376923
-0.015758805
-0.017565717
-0.018763055
-0.019198818
-0.018870207
-0.017844196
-0.01614665
-0.013950636
-0.011310607
-0.0083348762
-0.0052436795
-0.0029623593
0.00072067661
0.0032533036
-0.0010237346
-0.0040487241
-0.0082667285
-0.012419337
-0.016280411
-0.019760263
-0.022725702
-0.024987631
-0.026405422
-0.026940897
-0.026542976
-0.025306899
-0.023290809
-0.02064966
-0.017474294
-0.013981197
-0.010291233
-0.0063813493
-0.0034324741
0.00038869952
0.0038270298
-0.00084212179
-0.0038515161
-0.0086254819
-0.013343815
-0.018117366
-0.022690992
-0.026895736
-0.0305452
-0.033410029
-0.035216976
-0.035894225
-0.035396931
-0.033863341
-0.031374638
-0.028113983
-0.024242916
-0.020004153
-0.015541281
-0.011162534
-0.0066086835
-0.0035518615
0.00041116703
0.0011113518
-0.0028957378
-0.0077665549
-0.012911652
-0.01835844
-0.023895146
-0.029327133
-0.034473164
-0.039069285
-0.042769813
-0.045209111
-0.046096325
-0.045443484
-0.043501771
-0.040373894
-0.036309773
-0.031567669
-0.026453244
-0.021147421
-0.015966219
-0.0108469
-0.0062742747
-0.0017589129
-0.00045747439
0.0040283675
-0.0019974666
-0.0060076979
-0.011486994
-0.017331103
-0.023511643
-0.029885301
-0.036312949
-0.042580306
-0.048324485
-0.05305285
-0.056301068
-0.057511302
-0.056734679
-0.054324888
-0.050409454
-0.045318746
-0.039449652
-0.03323006
-0.026921178
-0.020846906
-0.014984749
-0.0098006475
-0.004922217
-0.0020141372
0.00044116564
-0.0036910681
-0.0090316574
-0.015006169
-0.021521635
-0.028451305
-0.035747886
-0.043302623
-0.050837371
-0.057843698
-0.063675114
-0.067784301
-0.069463079
-0.068674986
-0.065801396
-0.061076801
-0.054863579
-0.047696164
-0.040168284
-0.032677022
-0.025593161
-0.018875026
-0.012950681
-0.0072264067
-0.0031852778
0.00044347024
0.0042112555
-0.00083244902
-0.0059160593
-0.011799725
-0.018273841
-0.025396509
-0.033060261
-0.041304572
-0.050017881
-0.058803783
-0.066973797
-0.073774349
-0.07857031
-0.080729795
-0.080071178
-0.07685367
-0.071447254
-0.064220451
-0.055789599
-0.046908229
-0.03815437
-0.029991214
-0.022417946
-0.015706514
-0.0094629804
-0.0041582997
-0.00010322424
0.0032320929
-0.002409374
-0.0077090714
-0.014152964
-0.021048419
-0.028711203
-0.037055558
-0.046194897
-0.055965176
-0.065817224
-0.074902313
-0.082453511
-0.087843719
-0.090377042
-0.089734181
-0.086285965
-0.080388609
-0.072407032
-0.062952489
-0.052884505
-0.042960369
-0.033776902
-0.025424761
-0.018041184
-0.01143538
-0.0055046183
-0.0025290042
0.0014322216
-0.0039928492
-0.0093045946
-0.0160548
-0.023255625
-0.031332481
-0.040232462
-0.05009985
-0.060688383
-0.07130358
-0.081027784
-0.089329967
-0.09497866
-0.097843575
-0.097076169
-0.093485212
-0.08712526
-0.078621642
-0.068447434
-0.0574971
-0.046654435
-0.036649817
-0.027673657
-0.019776074
-0.012875683
-0.0066214524
-0.0033247802
0.0013281697
0.00092649437
-0.0051306103
-0.010527975
-0.017337193
-0.024747606
-0.033087482
-0.042360472
-0.052702326
-0.06379096
-0.074792653
-0.084965067
-0.093552842
-0.097761182
-0.10145491
-0.10156867
-0.097777787
-0.091222741
-0.082380813
-0.071748139
-0.060243068
-0.048823049
-0.038311729
-0.028957126
-0.020816111
-0.013720656
-0.0077649225
-0.0038449771
0.0012839607
-0.00083293871
-0.0048021654
-0.011173682
-0.017909417
-0.025429209
-0.03387707
-0.043314038
-0.053863478
-0.065107012
-0.076110588
-0.086308866
-0.094666456
-0.10161186
-0.10518475
-0.10303762
-0.098743063
-0.092140852
-0.083175935
-0.072423302
-0.06078276
-0.049246147
-0.038643423
-0.029225907
-0.021006367
-0.013913937
-0.0074276684
-0.003390169
0.00062210854
0.00044832732
-0.005240899
-0.011096532
-0.017824823
-0.025260964
-0.033623618
-0.042936827
-0.053301907
-0.064228687
-0.074835603
-0.084502348
-0.091969278
-0.099157629
-0.10481682
-0.10169672
-0.096599192
-0.090132148
-0.081309932
-0.070738017
-0.059355005
-0.048110624
-0.037771787
-0.028550742
-0.020505247
-0.013399247
-0.007779407
-0.0035945948
0.0010043401
0.0011387847
-0.0041915023
-0.010394927
-0.016944126
-0.024193428
-0.032294078
-0.041222288
-0.051017554
-0.061243207
-0.071192306
-0.08019335
-0.087618776
-0.092872921
-0.095447335
-0.094704753
-0.091637205
-0.085529336
-0.077176188
-0.067126336
-0.056327051
-0.045666182
-0.035832123
-0.026998404
-0.019260696
-0.012276772
-0.0068161118
-0.0031230032
0.0015092841
0.0024990893
-0.0031783098
-0.0090830315
-0.015442181
-0.022314535
-0.029943744
-0.038206411
-0.047193117
-0.056506299
-0.065594469
-0.073805163
-0.080507701
-0.085391519
-0.087900687
-0.087494301
-0.084478364
-0.078835193
-0.071085535
-0.061810841
-0.051868971
-0.04205618
-0.032948943
-0.024690002
-0.017387795
-0.010773173
-0.0053025851
-0.002396138
0.0031928067
-0.0019143891
-0.0072370119
-0.013332246
-0.019679261
-0.026733888
-0.034209883
-0.04223831
-0.05047731
-0.058527793
-0.065817604
-0.071799461
-0.076047226
-0.078293872
-0.078122496
-0.075482048
-0.070435987
-0.063484265
-0.055198599
-0.046333926
-0.037560207
-0.029335743
-0.021795244
-0.01504981
-0.009033562
-0.0037865488
-0.0017732737
-0.0010180624
-0.0051505616
-0.010790568
-0.016473332
-0.022873702
-0.029510342
-0.036541628
-0.043654793
-0.0505805
-0.056851704
-0.062022968
-0.065715844
-0.067699271
-0.067636765
-0.065381576
-0.061000752
-0.054967312
-0.047798334
-0.040122117
-0.032467123
-0.025189336
-0.018437968
-0.012323856
-0.0069107121
-0.0025992864
0.00052061452
0.0021407804
-0.002900952
-0.0078370925
-0.012839099
-0.018549171
-0.024377322
-0.030464125
-0.036508308
-0.042333962
-0.047578985
-0.051910249
-0.055002676
-0.056670467
-0.056682754
-0.054849338
-0.051197831
-0.046150436
-0.040139208
-0.033655905
-0.027102259
-0.020763505
-0.014830906
-0.0093190089
-0.0051318744
-0.0022999514
0.0019506567
0.0033474544
0.000215671
-0.0044604961
-0.0088796891
-0.013962151
-0.019027257
-0.02427831
-0.029385451
-0.034238782
-0.038551212
-0.042097945
-0.044625824
-0.045979155
-0.046014862
-0.044566259
-0.04162057
-0.037517911
-0.032590724
-0.02720314
-0.021653865
-0.01621058
-0.011094154
-0.0062218568
-0.0021784195
-0.00073784268
0.0021104754
-0.0019545534
-0.0048080291
-0.0093760254
-0.013710316
-0.018201283
-0.022521311
-0.026579972
-0.030132593
-0.033033204
-0.035084528
-0.036173477
-0.036207323
-0.035077209
-0.032762743
-0.029496458
-0.025519388
-0.021084111
-0.016429698
-0.011817007
-0.0072196683
-0.0039615099
-0.0011704315
0.0018430571
-0.0019380873
-0.0047815934
-0.0086841625
-0.012440541
-0.016037026
-0.019422549
-0.022357493
-0.024758256
-0.026451841
-0.027360845
-0.027411605
-0.026521125
-0.024694457
-0.022080715
-0.018873661
-0.015250139
-0.011319302
-0.0073175189
-0.00428084
-0.0018893878
0.001225474
0.001741544
-0.0018499841
-0.0039520667
-0.0070844906
-0.010133927
-0.01296918
-0.015415395
-0.017445788
-0.018868703
-0.019638038
-0.019688042
-0.018971441
-0.017555674
-0.015529725
-0.013052008
-0.010141182
-0.0068089451
-0.0043124678
-0.0019958539
0.00096760565
0.0018137516
-0.0001123744
-0.0031833065
-0.004885644
-0.0071585442
-0.0090163302
-0.010699137
-0.011920778
-0.012658218
-0.01283507
-0.012287698
-0.011132441
-0.0094382506
-0.0074647957
-0.0053420265
-0.0022218833
-0.0013458233
0.0009620884
0.0024742804
0.00075544614
-0.00096790195
-0.0022590248
-0.0038985379
-0.0055380197
-0.0065734375
-0.0071308166
-0.0071323473
-0.0062904812
-0.0053885778
-0.0042609993
-0.0034792262
-0.0024246251
0.00076478541
0.0029537625
0.00054941373
-0.0003721654
-0.0011060061
-0.0017739373
-0.0022798465
-0.0024315018
-0.0023957545
-0.0017524841
-0.001256597
0.0011203228
0.0005279062
0.0027201883
0.0022593429
0.0015841986
0.0018955229
0.0017291376
0.0022217501
0.0022822755
0.0023437814
-4.0582232e-05
-0.00028045034
-0.00035235199
-0.00024224716
0.0020063077
0.0023406461
0.0023075464
-0.0011059041
-0.0020682541
-0.0035620785
-0.0048283972
-0.0061427771
-0.0064985309
-0.0062658158
-0.005510804
-0.0039999361
-0.0024943499
-0.0014327642
0.00071894704
0.0030371446
0.0023175063
0.0010196432
-0.002555621
-0.0051392614
-0.0074469042
-0.0095665684
-0.01114519
-0.012103189
-0.012272233
-0.011847778
-0.010917935
-0.0094908317
-0.007876249
-0.0057439446
-0.0041608629
-0.0011031835
0.0023508687
0.002660749
-0.0014058978
-0.0039862865
-0.0077012546
-0.010920254
-0.013696134
-0.016076058
-0.017871256
-0.019054651
-0.01945246
-0.01906999
-0.017985145
-0.016220576
-0.013985167
-0.011312995
-0.0083343131
-0.0052009244
-0.0030552215
0.00072099098
0.0030913821
-0.0010860397
-0.0040301952
-0.0083562241
-0.012620072
-0.01654105
-0.020050729
-0.023034764
-0.025305029
-0.026710499
-0.027217071
-0.026774423
-0.025488221
-0.023412534
-0.020721747
-0.017493398
-0.013978078
-0.010259144
-0.0063283794
-0.003487676
0.00034501774
0.0037452511
-0.00096760648
-0.0038169208
-0.0087245211
-0.013531374
-0.01838315
-0.023006967
-0.02724026
-0.030901425
-0.033764775
-0.035558681
-0.036218533
-0.035695615
-0.034128073
-0.031587436
-0.028268277
-0.024327832
-0.020039193
-0.015524851
-0.011141324
-0.006521015
-0.0036264882
0.00037449228
0.0011752061
-0.0028419063
-0.0077942581
-0.013014649
-0.018543625
-0.024156047
-0.029643823
-0.034816717
-0.039411483
-0.043091541
-0.045506275
-0.046378803
-0.045719095
-0.043770905
-0.040623912
-0.036526904
-0.031724487
-0.026551146
-0.021180943
-0.01598325
-0.010789524
-0.0062755728
-0.0016495789
-0.00082222143
0.0041257028
-0.00211335
-0.0060381654
-0.01156776
-0.017483654
-0.023747621
-0.030200736
-0.03667566
-0.042937366
-0.048632675
-0.053293002
-0.056482632
-0.057668304
-0.056891693
-0.054495104
-0.050595977
-0.045521681
-0.03963877
-0.033382469
-0.027010706
-0.020914899
-0.014985901
-0.0098392202
-0.0048721802
-0.0021396116
0.00038239018
-0.0037139932
-0.0090676554
-0.015096186
-0.021701899
-0.028728717
-0.036105016
-0.043673718
-0.051147101
-0.058055063
-0.063788228
-0.067838113
-0.069457712
-0.068658007
-0.065804569
-0.061107575
-0.054951759
-0.047833362
-0.040325305
-0.032800337
-0.0256983
-0.018914497
-0.013012766
-0.0071840259
-0.0032615426
0.00028977806
0.0041881158
-0.0008951907
-0.00598664
-0.011876748
-0.018409553
-0.025633725
-0.03339826
-0.041697175
-0.050368798
-0.05904076
-0.067092856
-0.073812239
-0.078556778
-0.080678219
-0.080007738
-0.076772295
-0.071359215
-0.064178341
-0.055824287
-0.047015832
-0.038276337
-0.030113179
-0.022480943
-0.015763056
-0.0094074766
-0.0041386423
-0.00010072837
0.0032226734
-0.0025336198
-0.0077806325
-0.014258935
-0.021222173
-0.0289955
-0.037431682
-0.04658869
-0.05626983
-0.065990245
-0.074981169
-0.082502432
-0.087868211
-0.090380179
-0.089705176
-0.086211107
-0.080277401
-0.072297263
-0.062896179
-0.052920289
-0.043053846
-0.033897249
-0.025502553
-0.018095333
-0.011406565
-0.0054347146
-0.0026174097
0.0011983047
-0.0042078711
-0.0094253946
-0.016217784
-0.023481936
-0.031663969
-0.040634837
-0.050484652
-0.060961197
-0.071459121
-0.081121372
-0.089453398
-0.09499448
-0.097887529
-0.097119638
-0.093502136
-0.087062383
-0.078511287
-0.068343163
-0.057472596
-0.046713141
-0.036759726
-0.027759241
-0.019822706
-0.012868301
-0.0065136295
-0.0034427389
0.0010432173
0.00073776137
-0.0053715396
-0.010710917
-0.017550701
-0.025019495
-0.033452084
-0.04277484
-0.053072895
-0.064046926
-0.074944387
-0.085100124
-0.093704022
-0.097748476
-0.10138065
-0.10153075
-0.097812574
-0.091222464
-0.082308345
-0.071639097
-0.060186609
-0.048855652
-0.038404384
-0.029035592
-0.020856114
-0.013721176
-0.0077340605
-0.0038983681
0.0012933837
-0.0012346977
-0.0049802856
-0.011415224
-0.018164074
-0.02573855
-0.034267181
-0.043733646
-0.054219096
-0.065347397
-0.076258989
-0.086478316
-0.094792044
-0.10164761
-0.10518083
-0.10303406
-0.098851871
-0.092176204
-0.08312877
-0.072335728
-0.060738635
-0.049286275
-0.038735228
-0.029298316
-0.021025776
-0.013888606
-0.0073185981
-0.003455918
0.00062361211
0.00020939165
-0.0055358983
-0.011384052
-0.018128519
-0.025601053
-0.034032907
-0.0433524
-0.053644049
-0.064457564
-0.074995749
-0.084690798
-0.092073557
-0.099244637
-0.10481116
-0.10178724
-0.096783491
-0.090197517
-0.08128512
-0.070676166
-0.059340571
-0.04817366
-0.037872787
-0.028613991
-0.020508574
-0.013328758
-0.0077327578
-0.0035668554
0.001023908
0.0009088807
-0.0044153296
-0.010689728
-0.017262988
-0.024542227
-0.032710004
-0.041637791
-0.051372506
-0.061497947
-0.071389542
-0.080409852
-0.087862711