/*--------------------------------*- C++ -*----------------------------------*\
| =========                 |                                                 |
| \\      /  F ield         | OpenFOAM: The Open Source CFD Toolbox           |
|  \\    /   O peration     | Version:  2406                                  |
|   \\  /    A nd           | Website:  www.openfoam.com                      |
|    \\/     M anipulation  |                                                 |
\*---------------------------------------------------------------------------*/
FoamFile
{
    version     2.0;
    format      ascii;
    arch        "LSB;label=32;scalar=64";
    class       volScalarField;
    location    "350";
    object      epsilon;
}
// * * * * * * * * * * * * * * * * * * * * * * * * * * * * * * * * * * * * * //

dimensions      [0 2 -3 0 0 0 0];

internalField   nonuniform List<scalar> 
150387
(
0.00045155934
8.5977478e-05
7.4143631e-05
6.7483594e-05
6.1096552e-05
5.8300935e-05
0.00028897521
0.00026303718
0.0011876608
0.00012237877
8.5393123e-05
6.7548688e-05
5.6650342e-05
5.0607523e-05
5.3864455e-05
5.9426949e-05
5.8019791e-05
0.00028538142
0.00044134013
0.0008467906
0.0014542891
0.00015446967
0.00015064499
0.00014593224
0.000136308
0.00012371377
0.00010563529
8.6075562e-05
7.0490854e-05
6.5833557e-05
6.8423752e-05
0.00045603603
0.00046455914
0.00063729301
0.00075517202
0.00082315924
0.0003122798
0.0012949944
0.00032002015
0.00036224699
0.00037005626
0.00032703265
0.00026657486
0.00021003628
0.00016136717
0.00012324257
9.719556e-05
8.3867896e-05
8.8317446e-05
0.0004965945
0.00047067121
0.00054092916
0.00058227282
0.00081784099
0.00069969499
0.00041606534
0.0018003469
0.00065268298
0.00079784251
0.00081476084
0.00070218159
0.0005544356
0.00041721545
0.00030435107
0.00021935811
0.0001606914
0.00012242776
0.00010056504
0.0001085748
0.00045051597
0.00044461257
0.0004550042
0.00047355785
0.0007110993
0.00075932783
0.00056120543
0.00026122509
0.0010073962
0.0012396627
0.0012235202
0.0010709861
0.00088320686
0.00069923211
0.00053492585
0.00039824437
0.00028745579
0.00020438726
0.00014890995
0.00011568323
0.00012469234
0.00037425846
0.00040542834
0.00037758603
0.00044119383
0.00060206008
0.00068629479
0.00060328014
0.00031168002
0.00019330029
0.0010628065
0.001517619
0.0014716608
0.0013105998
0.0011089509
0.00090505775
0.00072838325
0.00057487025
0.00043947828
0.00032433142
0.00023228996
0.00016785203
0.00012630128
0.00013279917
0.00031644624
0.00033609758
0.00031726022
0.00042910257
0.00051979788
0.00057628739
0.00054957598
0.00032805897
0.00014061586
0.00023476693
0.0014080546
0.0015814276
0.0014008794
0.0013034027
0.0011480649
0.00098815043
0.00084199563
0.00070310591
0.00056834647
0.00044000152
0.00032601403
0.0002339448
0.00017015303
0.00012722528
0.00013107755
0.0002540633
0.00025670402
0.00029255657
0.00040160712
0.00045051602
0.0004676754
0.00044472433
0.00028846945
0.00014258364
7.2718355e-05
0.0020458336
0.0015745606
0.0012953946
0.0010364981
0.0008886345
0.00078757936
0.00070555975
0.00061214787
0.00050441061
0.0003926723
0.00029038928
0.0002100876
0.00015469649
0.00011714934
0.00012106617
0.00019309849
0.00020411671
0.00027380338
0.00035494752
0.00038065487
0.00037010627
0.00033707198
0.00022258308
0.00013339317
6.1613935e-05
0.00012190867
0.0017775821
0.0013288797
0.0012242825
0.0010809287
0.00090750472
0.00072875161
0.00058195608
0.00047793314
0.00038899258
0.00030145187
0.00022344158
0.00016496495
0.00012408075
9.796358e-05
0.0001048716
0.00014640704
0.00017118632
0.00023881811
0.00029342405
0.00030572107
0.00028675217
0.00024404008
0.00016752046
0.00011326736
5.3782931e-05
5.9285532e-05
0.0013847562
0.0015229929
0.0010841841
0.00088075706
0.00086622444
0.00084812746
0.00072900657
0.00056807879
0.00041415803
0.00029314919
0.000211066
0.00015415353
0.00011282821
8.5129425e-05
7.2626812e-05
8.6237668e-05
0.00010985576
0.00014224323
0.00019428489
0.00022910047
0.00023424914
0.00021530885
0.0001729959
0.0001248704
9.1885277e-05
4.7802315e-05
4.982227e-05
0.00073151639
0.00095191989
0.00096965824
0.00079016335
0.00063953513
0.00059989014
0.00056981627
0.00047561733
0.00035326762
0.00023849686
0.0001575573
0.00010605912
7.0864928e-05
4.9250144e-05
4.5190021e-05
6.8368581e-05
8.2591408e-05
0.00011396531
0.00015149726
0.00017459501
0.00017614047
0.00015910508
0.00012569079
9.2758189e-05
7.2996108e-05
4.1982575e-05
3.9367532e-05
0.00016109692
0.00046793702
0.00057505483
0.00066441691
0.00064633009
0.00054051051
0.00041734582
0.00034499999
0.00029157096
0.00023083754
0.00017264533
0.00012327066
8.237436e-05
5.9073659e-05
4.2220737e-05
2.4390888e-05
5.7739457e-05
6.3361164e-05
8.9275219e-05
0.00011564522
0.00013145944
0.00013200067
0.0001180335
9.4251186e-05
7.1850592e-05
5.8085505e-05
3.6249597e-05
3.8363551e-05
6.0405218e-05
0.00016129849
0.00019195017
0.00018251983
0.00017135036
0.00016775743
0.00016971764
0.00017022085
0.00016249496
0.00014657123
0.00012603575
0.00010126624
7.3467182e-05
4.1887534e-05
3.4225653e-05
2.1890124e-05
4.2658583e-05
5.0907126e-05
7.1174055e-05
8.9260682e-05
9.9829914e-05
0.00010015412
9.0946348e-05
7.7029924e-05
6.3577734e-05
5.0088437e-05
3.4191903e-05
4.0759924e-05
4.7242984e-05
7.0738361e-05
6.4385068e-05
8.0231063e-05
0.00010748909
0.00013476074
0.00016238148
0.0001830902
0.00018776946
0.0001762983
0.00014997816
0.00011267985
6.5297961e-05
2.2472044e-05
2.2904312e-05
3.315102e-05
3.6870521e-05
5.0034139e-05
6.7492939e-05
8.7774834e-05
0.00010965488
0.00012895473
0.00014121846
0.00014001288
0.00011710501
8.1203832e-05
5.1972053e-05
4.2902047e-05
9.7118063e-05
6.9809512e-05
5.3407508e-05
8.4731093e-05
0.00012857012
0.00017334665
0.00022499299
0.00025850683
0.00026438252
0.00024508098
0.00020274503
0.00014804878
8.9809562e-05
4.181012e-05
4.0005751e-05
3.3881171e-05
4.2950425e-05
6.3170867e-05
9.0183112e-05
0.00012667217
0.00016990021
0.00022096541
0.00026960312
0.00033003674
0.00042712144
0.00046146688
0.00035740012
0.00019023517
0.00018860266
0.00011202061
5.8545236e-05
0.00010382582
0.00017102008
0.00024281291
0.00032404982
0.00036756923
0.00037518763
0.00034524559
0.00028042514
0.00020128182
0.00013432697
8.2734461e-05
6.4190395e-05
6.3376976e-05
7.3518389e-05
9.9143343e-05
0.00013000723
0.00015980273
0.00019632516
0.00025819525
0.00033520585
0.00038816011
0.00043905615
0.00050725428
0.00049981402
0.00038134343
0.0002381149
0.00031057828
7.1488364e-05
0.00011989625
0.00022669561
0.00034814134
0.00045784647
0.00050416262
0.00050809084
0.00046525821
0.00037719139
0.00026959397
0.00019508031
0.00013805488
0.00010134969
8.7948633e-05
0.00010704434
0.00014185764
0.00018439214
0.00022264598
0.00024356285
0.00026619635
0.00033451383
0.00042903834
0.0004988225
0.00054783824
0.00060029984
0.00071654435
9.6532786e-05
0.00013149358
0.00028941382
0.000486212
0.00062830914
0.00066818138
0.00065692747
0.00059221791
0.00047143209
0.00035487174
0.00029053777
0.00021512799
0.00014912968
0.00010851152
0.00013235424
0.00017544207
0.00023063889
0.0002915695
0.00033669172
0.00034875789
0.00034763543
0.00040079301
0.00053187709
0.00067404348
0.00083217313
0.0010235918
0.00015439498
0.00014038431
0.00034769677
0.00064553724
0.00082852776
0.00086008975
0.00081341887
0.00070766006
0.00055242388
0.00046896298
0.00042492976
0.00031180851
0.00019664517
0.00012571215
0.00014376672
0.00019092261
0.00025617864
0.0003331986
0.00040626881
0.00046290395
0.00049135427
0.0004907313
0.00052455499
0.00067415034
0.00093358067
0.0013225605
0.0001476845
0.00036655407
0.00079712545
0.0010466982
0.0010879681
0.00097506229
0.00080060554
0.00064623275
0.00063327143
0.00056296057
0.0003950861
0.00023648582
0.00013816346
0.00013956474
0.00018561992
0.00025454419
0.00034020106
0.00043330166
0.00052823379
0.0006265295
0.00071845318
0.00079864366
0.00082112155
0.0006078614
0.00023275004
0.00032878643
0.00085958864
0.0012439706
0.0013180202
0.0011502412
0.00087327244
0.00079862549
0.00081944567
0.00066721752
0.00043353573
0.00028298968
0.00014053983
0.00012160627
0.00016356868
0.0002289547
0.00031706062
0.00042989566
0.00056061178
0.00069705519
0.00080898191
0.00081176149
0.00055769052
0.00016511665
0.00031133237
0.00074849232
0.001361101
0.0015053186
0.0013174715
0.00097241734
0.0010111364
0.00096010239
0.000683755
0.00047819771
0.00037417904
0.00013078728
9.5439171e-05
0.00012560855
0.00018183201
0.00026976791
0.00038317783
0.00050381901
0.00060048251
0.00060867868
0.00050312086
0.00028685419
0.0005762378
0.0012321128
0.0015881246
0.0014140982
0.0011727501
0.0012398926
0.00097768939
0.00070203094
0.00059635032
0.0004776344
0.00011385168
7.1566081e-05
8.7893168e-05
0.00012255074
0.00016976245
0.00023285964
0.00029217508
0.00030259531
0.00025562434
0.00021818138
0.00076495595
0.0013741449
0.0014628201
0.0014820641
0.0014030197
0.00098027676
0.00087820429
0.00069762277
0.00053140869
9.3656933e-05
5.3785564e-05
6.6085338e-05
8.4072845e-05
0.00010373845
0.00011830212
0.00012154315
0.00013106095
0.00022983867
0.00047076491
0.0015736936
0.001781635
0.0015224867
0.0012671499
0.0011076126
0.00063965963
0.00047498378
7.3689248e-05
3.460627e-05
3.7315631e-05
4.2225329e-05
4.8299115e-05
5.7027861e-05
8.5636057e-05
0.00041211815
0.0021600658
0.0021316021
0.001794994
0.0010760351
0.00051752541
0.00028071161
6.958059e-05
3.8975208e-05
4.0668313e-05
4.699101e-05
6.8556323e-05
0.00015895291
0.00054623998
0.00063505272
0.00028562465
0.00017163294
4.2106611e-05
0.00014139028
0.00027932715
8.7867074e-05
4.2287027e-05
3.1485633e-05
2.4701198e-05
2.1444171e-05
2.3057045e-05
1.8420016e-05
0.00037773942
0.00017017193
0.00016560996
0.00016193497
0.00014636571
0.00012589266
9.9526962e-05
7.1850654e-05
4.9730209e-05
3.5105173e-05
3.5027413e-05
0.0002915367
0.0011211991
0.0022855868
0.0029058755
0.00052109536
0.00042234867
0.00051189119
0.00051710408
0.00046209246
0.00037227865
0.0002807121
0.00020164316
0.00014024974
9.7034033e-05
6.9032203e-05
7.6688194e-05
0.00010239999
0.00048252901
0.0011345931
0.001544836
0.0012608309
0.00077057713
0.0010782915
0.0011416654
0.0010510227
0.00086759101
0.00066928995
0.00049508484
0.00035683325
0.00025321559
0.00017882148
0.00012576813
9.7920464e-05
0.00015053773
0.00016678437
0.00035391105
0.00078023024
0.0012291179
0.001423578
0.0009724482
0.001467848
0.0018445622
0.0018862447
0.0016969403
0.0013872761
0.0010641938
0.00078088055
0.00055794388
0.00039162759
0.00027225124
0.00019063337
0.00013614158
0.00011677929
0.00022114356
0.00030668246
0.00042359924
0.00063610598
0.0010182437
0.001297773
0.0010923168
0.00056676891
0.0029634981
0.0025938492
0.0024780629
0.0021545017
0.0017555033
0.0013776157
0.0010512075
0.00077686123
0.00055567064
0.00038966898
0.00027194894
0.00019159825
0.00013833226
0.00012382878
0.00025466321
0.00040430737
0.00047517109
0.00057670914
0.00086288424
0.0011180364
0.0010950504
0.00066877132
0.00026034865
0.0028636302
0.0026438392
0.0022910879
0.0018975218
0.0015259595
0.0011977708
0.00092034596
0.00069404305
0.00051074067
0.00036792699
0.00026143372
0.00018633036
0.00013553409
0.00011956807
0.00025354801
0.00040284131
0.00044525434
0.00052400648
0.00073068418
0.0009225638
0.00097747419
0.00069501656
0.00026094462
0.0002063511
0.0029443861
0.0027036062
0.0021466927
0.001740858
0.0014417902
0.0011851599
0.00095413889
0.00075200991
0.00058217155
0.00044189467
0.00032818254
0.00023910042
0.00017337957
0.00012571488
0.00010790584
0.00022253788
0.00033563252
0.00037195367
0.00045767256
0.00060276153
0.00073729172
0.00079390003
0.00062527388
0.00031803046
0.00011569675
0.0028651073
0.0020419135
0.0016289317
0.0013980105
0.0011848136
0.00096246285
0.00075922075
0.00059199668
0.00045985554
0.00035453193
0.0002691965
0.00020069356
0.0001479564
0.00010676919
9.0713574e-05
0.00017234004
0.0002453363
0.00029807449
0.00038212584
0.00047921183
0.00056760106
0.00059979104
0.00050432953
0.00031989215
9.9280018e-05
9.4893055e-05
0.0052280811
0.0018547302
0.0011455697
0.0010239701
0.0010484836
0.0010056727
0.00085915562
0.00066475343
0.00048595059
0.00035043083
0.0002557686
0.00018950217
0.00014157247
0.00010670695
7.8815547e-05
6.9904242e-05
0.00011938021
0.00017323924
0.00023751868
0.00030519431
0.00036518312
0.00041558181
0.00042981213
0.00038065634
0.00027957248
9.8366321e-05
3.962171e-05
0.0023415198
0.0010109835
0.00073806566
0.00079515255
0.00085736897
0.00083783079
0.00073920873
0.00059087694
0.00042921864
0.00028634729
0.00018140394
0.00011579105
7.9407671e-05
6.0372924e-05
4.8970411e-05
5.0301157e-05
7.8694673e-05
0.00012779617
0.00018718993
0.00023315715
0.00026608488
0.00028993008
0.00029708989
0.00027607391
0.00022007982
8.9111416e-05
3.1653152e-05
0.0011003882
0.00030260275
0.00038823422
0.00052865349
0.00056725444
0.00051695736
0.00043974342
0.00035767408
0.00026999539
0.00018353383
0.00011235855
6.6027034e-05
4.5220278e-05
3.4676096e-05
2.9258835e-05
3.604884e-05
5.520106e-05
9.92171e-05
0.00014343372
0.00017074054
0.00018618782
0.00019516171
0.0002014395
0.00019661136
0.00016381074
7.7373287e-05
2.3595988e-05
0.00015715155
0.00010862225
0.00013042712
0.00022594796
0.00027133838
0.00026698836
0.00023137933
0.00018937547
0.00015438854
0.00012097913
8.6649802e-05
5.9096994e-05
4.2831994e-05
3.9138889e-05
2.6264152e-05
1.4876677e-05
2.7867998e-05
4.4641831e-05
7.8482738e-05
0.00010679346
0.00012197943
0.00012883833
0.00013293091
0.00013943649
0.00014143261
0.00011875291
6.1583545e-05
1.7439308e-05
5.5732028e-05
2.8966693e-05
6.8816903e-05
0.00013553378
0.00016570528
0.00017272182
0.00017204535
0.00016570274
0.0001513859
0.00012929431
0.00010082366
6.9139955e-05
4.1186212e-05
2.2458043e-05
5.4680409e-05
1.342836e-05
2.4792696e-05
3.8825179e-05
5.9756286e-05
7.662181e-05
8.6348232e-05
9.1214625e-05
9.4551667e-05
9.938083e-05
0.00010155855
8.5752527e-05
4.4534009e-05
1.4147346e-05
4.0462264e-05
2.8805956e-05
9.2195189e-05
0.00019873151
0.00024911444
0.00026306195
0.00026183368
0.00025032838
0.0002298124
0.00019723016
0.00015140158
9.5004368e-05
4.7679991e-05
2.1309574e-05
1.7520074e-05
1.3162127e-05
2.4557448e-05
3.4459164e-05
4.8598918e-05
6.5822971e-05
8.2703516e-05
9.6971736e-05
0.00010890534
0.00011337484
0.00010033861
7.1490746e-05
3.4090457e-05
1.211263e-05
2.7999577e-05
3.5894842e-05
0.00011870907
0.00027532602
0.00035410475
0.00038640088
0.00038472271
0.00036214752
0.00032628242
0.00027542734
0.00020775294
0.00012972695
6.9014489e-05
3.7965404e-05
3.5178771e-05
3.1697728e-05
3.589792e-05
4.8086865e-05
7.3708881e-05
0.00011801865
0.00017308625
0.00022065403
0.00024830814
0.00024142203
0.00018438726
9.3400731e-05
3.3501967e-05
2.197044e-05
3.0735328e-05
5.3498925e-05
0.00013982655
0.0003695672
0.00049603542
0.0005626874
0.00056251089
0.00052070718
0.00045497884
0.00037354048
0.0002781533
0.00018416925
0.00011799207
6.3002981e-05
4.4660787e-05
5.5843752e-05
7.2630846e-05
9.2998522e-05
0.00012312762
0.00017969105
0.00027205486
0.00037163862
0.00041878033
0.00036793376
0.00023470209
0.00012019684
0.00011617822
9.440816e-05
0.00010459963
0.00015587818
0.00046121706
0.00067633416
0.00079772643
0.00080303045
0.00072625198
0.00061428947
0.00049090854
0.00036803141
0.00027261173
0.00020525928
0.00011145605
5.8033611e-05
7.6875446e-05
0.00011233265
0.00014931061
0.00018990882
0.00024038684
0.0003168728
0.00041813613
0.00048708765
0.00044535341
0.00031039333
0.00026003961
0.00051880473
0.00076343256
0.00015762719
0.00051316976
0.00087886446
0.0010964499
0.001101678
0.00097710224
0.00080484541
0.00063218624
0.00049245854
0.00040989641
0.00032785003
0.00017755797
8.1903427e-05
9.3390762e-05
0.00014133349
0.00019653994
0.00025989114
0.00032600406
0.00039597888
0.00047482487
0.00055243738
0.00058940228
0.00059154748
0.00071704007
0.0012334526
0.0014076236
8.2936578e-05
0.00049949206
0.0010614306
0.0014342229
0.0014530429
0.0012774638
0.0010285274
0.00080696186
0.00066813249
0.00059395488
0.00046618712
0.00024809227
0.00010757493
0.00010548934
0.00015972999
0.00023174314
0.00032235571
0.00042159862
0.00052094289
0.00061254786
0.00069627908
0.00078908719
0.00094080772
0.0012257685
0.0013687902
0.0038579756
0.00038019941
0.00040166506
0.0011411473
0.0017491104
0.0018516768
0.0016240406
0.001282071
0.0010234543
0.00088877889
0.00079221892
0.00059629792
0.00031824703
0.00013620881
0.00011269022
0.00017041401
0.00025794261
0.00037744733
0.0005176751
0.00067045486
0.00082676536
0.00098085808
0.0011373646
0.001292628
0.0014510023
0.0016874768
0.00016045304
0.0010533042
0.0019239769
0.0022555584
0.0020072544
0.0015604533
0.0012749422
0.0011018484
0.00094383513
0.00069353335
0.00038445949
0.00016929545
0.00011590667
0.00017706947
0.00027410493
0.0004160416
0.00059124496
0.00078716221
0.00099739011
0.0012006502
0.0013566636
0.0014061317
0.0011223994
0.00057790837
0.0018365046
0.0025471858
0.0023895736
0.0018714504
0.0015371048
0.0012226805
0.0010034982
0.00072196857
0.00040435754
0.00018548845
0.0001202923
0.00018312505
0.00027629083
0.00041276466
0.00059142299
0.0007980028
0.00098959975
0.0010995931
0.0010604152
0.00089356848
0.00099194172
0.0011667732
0.0025777051
0.0026828027
0.0022578395
0.0018139299
0.0012434081
0.00098267572
0.0006416081
0.00032249688
0.00016936267
0.00012437308
0.00018269883
0.0002544441
0.00035402413
0.00047381723
0.0005913516
0.00065529673
0.00061340673
0.00051594578
0.00050650255
0.0020145571
0.0027514211
0.0027339723
0.0022277694
0.0013510876
0.00098848751
0.00050381077
0.00018789377
0.00011452975
0.00011013558
0.00015220508
0.00020174601
0.000256279
0.00029156722
0.00028440333
0.00022407896
0.00020700045
0.00026638549
0.0018157081
0.0027775883
0.0029643716
0.0019508208
0.0013126693
0.00056717165
0.0001202906
4.764913e-05
5.5168167e-05
7.2013969e-05
8.1645441e-05
8.854048e-05
8.656537e-05
8.9118545e-05
0.00011984469
0.0039469006
0.0031343515
0.0021830707
0.0011173214
0.00032923717
3.0393161e-05
1.6635983e-05
1.6998209e-05
2.2481492e-05
3.0045125e-05
4.9225677e-05
0.00017624272
0.0017890055
0.00069042118
8.5432121e-05
2.472141e-05
5.8631127e-05
0.0002937298
0.00010480283
5.2319146e-05
3.7806088e-05
2.6960466e-05
2.0371742e-05
2.0341563e-05
2.2427409e-05
0.00088861127
0.00024888208
0.00028639802
0.00028362155
0.00025364905
0.00021437277
0.00016161157
0.00010938403
6.8227251e-05
3.6202454e-05
4.3949872e-05
0.00046240536
0.0015745857
0.0032291539
0.0048236553
0.00095507232
0.00071289743
0.0008820034
0.00087846669
0.00076026999
0.00059351246
0.00043457936
0.00030265616
0.0002011685
0.00012806022
7.3450922e-05
4.45819e-05
5.8740473e-05
0.00049291907
0.0014446976
0.0022118627
0.0024092641
0.0014080908
0.0016796088
0.0017527195
0.0016051141
0.0013268509
0.0010247988
0.00075326789
0.0005333635
0.00036685561
0.00024611009
0.00016009708
9.8666266e-05
5.9775632e-05
5.4616343e-05
0.00017182067
0.00079132865
0.0015568056
0.0020307652
0.0016231463
0.0026004565
0.0026261887
0.0026089618
0.0023374906
0.0019310258
0.0015003979
0.0011122533
0.00079563147
0.00055152483
0.00037407827
0.00024979952
0.00016460496
0.00010725314
9.1643808e-05
0.00010192412
0.00018890627
0.00054723344
0.0011711167
0.0017209606
0.0016038739
0.00096382055
0.0057033424
0.003574083
0.0032086731
0.0027428392
0.0022524026
0.0017974753
0.0013951655
0.0010442779
0.00075238526
0.00052408764
0.00035611871
0.00023865741
0.00015947199
0.00010996014
0.00012667731
0.00019970174
0.0003073889
0.00051590811
0.00095110263
0.0014466702
0.0015590549
0.0010785063
0.00047942976
0.0040084233
0.0033074912
0.0026989148
0.0021963416
0.0018018024
0.0014678071
0.0011685198
0.00090040837
0.00066808966
0.00047805566
0.00033191529
0.00022653688
0.00015424944
0.00010947582
0.00015339953
0.00028026922
0.00039872621
0.00053065977
0.00083158892
0.0012048239
0.0013947749
0.0011096929
0.00046130461
0.00037100555
0.004845278
0.0034091362
0.002435327
0.0018634035
0.0015525837
0.0013400661
0.0011369715
0.00093203424
0.00073797717
0.00056501428
0.00041851753
0.00030046642
0.00021118148
0.00014658745
0.00010414727
0.0001619565
0.00030367772
0.00040725581
0.00051684093
0.00073156669
0.00098726753
0.0011525069
0.0010036396
0.00057324657
0.00021390619
0.0038115271
0.00216119
0.0014147853
0.0012022743
0.0011548806
0.0010693268
0.00091467536
0.00073775968
0.00057865662
0.00044768556
0.00034094192
0.00025374241
0.00018462006
0.00013054969
9.2696486e-05
0.00014941313
0.00027167759
0.00035782901
0.00046378058
0.00061596668
0.00078084832
0.00089132736
0.00081878693
0.00056571896
0.00018285185
0.00011540225
0.0079341261
0.002142066
0.00087474494
0.0005876504
0.00068469614
0.0008253128
0.00085843752
0.00076612672
0.0006071399
0.00045023002
0.00032951267
0.00024497024
0.00018441014
0.00013904174
0.00010140964
7.4552625e-05
0.00012189267
0.00021514949
0.00029354374
0.00038622392
0.00048611764
0.00058470998
0.00065171283
0.00062301485
0.00048267738
0.00018243219
5.3123857e-05
0.0036237856
0.00092863335
0.00027668253
0.00027021246
0.00042284398
0.00054721208
0.00059614211
0.00056844358
0.00047793162
0.00035597508
0.00024240291
0.00015949452
0.00010917396
8.1372132e-05
6.3303817e-05
5.3736765e-05
9.1846232e-05
0.00016396454
0.00023384772
0.0002999048
0.00035737407
0.00041162926
0.00045383701
0.00045072815
0.00037198798
0.00016318947
4.6592318e-05
0.0014882577
0.00014625108
0.00010558625
0.00017396872
0.00024986092
0.00029202636
0.00029343571
0.00027317346
0.00023670567
0.00018493519
0.00012806503
8.0693897e-05
5.6911998e-05
4.4904981e-05
3.5237279e-05
3.73379e-05
6.93285e-05
0.00012665211
0.00017983157
0.00021774184
0.00024592109
0.00027436353
0.00030389007
0.0003152259
0.00027083692
0.00013846132
3.7663844e-05
0.00012416914
8.3982405e-05
4.9774074e-05
0.00011513327
0.00015561385
0.00016733792
0.00016555223
0.00015310391
0.00013479229
0.00011306332
8.7723442e-05
6.3149756e-05
4.438798e-05
4.4567986e-05
4.4007247e-05
1.8548922e-05
2.8635884e-05
5.6389368e-05
9.9348612e-05
0.00013220456
0.00015008164
0.00016209015
0.00017809774
0.00020145036
0.00021671443
0.00018964051
0.00010471821
2.8156957e-05
5.221953e-05
2.4747481e-05
0.00010466264
0.00019761692
0.00023088245
0.00022299965
0.00020559333
0.00019321855
0.00018037427
0.00015976199
0.00012914059
8.9112106e-05
4.9395978e-05
2.529055e-05
0.00014716155
1.7761174e-05
2.6806119e-05
4.8235792e-05
7.4761707e-05
9.2112521e-05
9.9591224e-05
0.00010392464
0.0001137602
0.00013233845
0.00014627429
0.00012831622
7.12048e-05
1.7969546e-05
4.1002873e-05
2.4763956e-05
0.00015932027
0.0003028194
0.00036453108
0.00036339094
0.00034024863
0.0003135553
0.00028434848
0.00024593292
0.00019298217
0.00012465729
6.1969045e-05
3.1596954e-05
4.9157503e-05
1.4872702e-05
2.732232e-05
3.9613128e-05
5.3994155e-05
6.6638353e-05
7.5419816e-05
8.1482798e-05
8.6212521e-05
9.2436833e-05
9.7158322e-05
8.3734065e-05
4.4131387e-05
1.2867962e-05
3.3777299e-05
3.83546e-05
0.00021204112
0.00043696829
0.00053745432
0.00055151554
0.00051968404
0.00047166417
0.00041540159
0.00034728497
0.00026323325
0.00016966394
9.2030533e-05
4.5637151e-05
4.0628586e-05
3.9180687e-05
4.3601182e-05
5.6852353e-05
8.1166351e-05
0.00011255842
0.00013685234
0.00014240622
0.00012839515
0.00010169798
7.089821e-05
4.5901488e-05
2.2384645e-05
1.2261607e-05
3.087343e-05
7.0551907e-05
0.00025229186
0.00060176413
0.00076701882
0.00081036917
0.00076667833
0.00068251444
0.00058234689
0.00047075554
0.00035057532
0.00024034149
0.00015567024
7.0378783e-05
4.9945057e-05
7.0396225e-05
9.1500504e-05
0.00011586661
0.00015404305
0.00021272356
0.00027081716
0.00028393368
0.00022886726
0.00013329222
6.3903676e-05
4.0550106e-05
0.00011517538
0.00014781409
0.00013479232
0.00028207514
0.0007738007
0.001048625
0.0011432927
0.0010822065
0.00093966819
0.00077755178
0.00061489659
0.00046550705
0.00035221129
0.00025160467
0.00011275459
6.0649593e-05
9.6151439e-05
0.00014016898
0.00018384908
0.00023187684
0.00029309904
0.00036373287
0.00039519477
0.00032668023
0.00018226129
8.9616056e-05
0.00012650105
0.00058599252
0.0010840951
0.00028111727
0.00089229166
0.0013579834
0.001550308
0.0014598766
0.0012334846
0.00099302184
0.00078340277
0.00062243814
0.00050561615
0.00035757371
0.00015789685
7.6332849e-05
0.00011318154
0.00017599106
0.0002474382
0.00032267305
0.00039404225
0.00045757658
0.00049334605
0.00046134857
0.00036790433
0.00034999084
0.00063905715
0.0015559102
0.002070429
0.00012815271
0.00088476524
0.0016362464
0.0019971029
0.0018870332
0.0015565255
0.0012196377
0.00097578019
0.00081356863
0.0006635571
0.00043905601
0.00019209169
9.2201818e-05
0.00012374203
0.00020168232
0.00030199141
0.00041627268
0.00052424759
0.00060880055
0.00066016671
0.00069005867
0.00075885623
0.00097794175
0.0014831565
0.0017694581
0.005486256
0.00054196107
0.00069427384
0.0017713758
0.0024080369
0.0023587177
0.0019098581
0.0014496193
0.0011691522
0.00097948889
0.00075838209
0.00046924794
0.00021030254
0.00010727023
0.00013142364
0.00022469901
0.00035230129
0.00051062098
0.00067746799
0.00083345245
0.00097301544
0.0011184055
0.0013205751
0.0016186301
0.0020711651
0.0025317386
0.00028274158
0.0016605273
0.0026572883
0.0028458094
0.0023131388
0.0016942577
0.0013170392
0.0010323736
0.00073664964
0.00043117633
0.00020207771
0.00011657947
0.00014741509
0.0002525642
0.00040064518
0.00059772779
0.00082739184
0.0010691884
0.001314034
0.0015599407
0.0017885727
0.0019799444
0.0018117957
0.0010255016
0.0026114572
0.0032673085
0.0027922931
0.0020192546
0.0014209287
0.00095316817
0.00060520059
0.00031892274
0.00016012446
0.00012330761
0.00017639068
0.00028537013
0.00043746698
0.00064483739
0.00090021529
0.0011802637
0.0014317017
0.0015777626
0.0015608925
0.0013686896
0.0018177899
0.0019011
0.0035216723
0.0033189234
0.0025598616
0.0016421239
0.00087989243
0.00046498131
0.0001885934
0.0001061847
0.00012900094
0.00020122151
0.00030200863
0.00043365663
0.00060357664
0.00079755601
0.00097955667
0.0010768198
0.0010181678
0.00086155641
0.00096400505
0.0034084626
0.0038368252
0.0034153246
0.0023125554
0.0011350193
0.00055719079
0.00015293938
7.4824281e-05
0.00010918905
0.0001827374
0.00025949393
0.00035641056
0.00046187019
0.00054004869
0.0005420088
0.00041852529
0.00039213474
0.00048317886
0.003472564
0.0039721627
0.0038218542
0.0022425004
0.0013090561
0.00046133376
7.9321895e-05
5.3137376e-05
9.9727833e-05
0.00013277348
0.00015640418
0.00017277934
0.00016891092
0.00018062874
0.00022201872
0.005879404
0.0041907592
0.0029170517
0.0014205423
0.00033828152
2.3555712e-05
1.7523233e-05
2.9377284e-05
3.8380746e-05
4.5711502e-05
6.6021436e-05
0.00021834059
0.0028356392
0.001016268
0.00019944859
2.7768759e-05
5.2059161e-05
0.00039682195
0.00013294838
6.2912997e-05
4.7402259e-05
3.4638359e-05
2.4889978e-05
2.308372e-05
4.4098862e-05
0.0017680899
0.00040153697
0.00047888092
0.00048028236
0.00042543222
0.0003527419
0.00025640106
0.00016550549
9.7062332e-05
4.2964793e-05
9.9031808e-05
0.00075262372
0.0022129501
0.0043139389
0.0071474513
0.0016061215
0.0011408621
0.001388635
0.0013626175
0.0011682646
0.00090801442
0.00066314037
0.00045915597
0.00030139927
0.00018599024
9.7928256e-05
5.9726503e-05
8.9236348e-05
0.00063340109
0.0018861518
0.0030123238
0.0038145252
0.0023220362
0.0024354174
0.002493321
0.0022787834
0.001900972
0.0014877034
0.0011059195
0.00078805907
0.00054235397
0.00036175035
0.00023035243
0.00013212344
6.1101921e-05
4.793544e-05
0.00013310763
0.00085687945
0.0019422203
0.0027300156
0.0024611588
0.0041287473
0.0035506481
0.0034085578
0.0030241236
0.002517793
0.0019940557
0.0015135278
0.0011059579
0.00077543089
0.00052634685
0.00034791831
0.00022210682
0.000132648
7.0220176e-05
5.0541513e-05
8.8862373e-05
0.00043560337
0.0013092017
0.0021747732
0.0022327112
0.0015280606
0.0091940724
0.004641502
0.0039295
0.0032584374
0.0026605842
0.0021604737
0.0017257694
0.0013284324
0.00097700397
0.00068636491
0.0004640171
0.00030438913
0.00019436905
0.00011934335
8.1375575e-05
8.4789723e-05
0.00015252518
0.00038124867
0.00097695838
0.0017508333
0.0020946472
0.0016124019
0.00080926576
0.0053004495
0.0039642315
0.0029874746
0.002328835
0.001921732
0.0016302368
0.001357325
0.0010814906
0.00081770581
0.00058737298
0.00040319337
0.0002669888
0.00017265939
0.00010580124
0.00010032444
0.00015930233
0.00027566784
0.00045329258
0.00085053936
0.0014353594
0.0018542223
0.001632462
0.00076913584
0.0006624089
0.0072766036
0.0041406215
0.0025417077
0.0017227193
0.0014213259
0.0013109523
0.0012023567
0.0010436543
0.00085547271
0.00066611422
0.00049457419
0.00035098249
0.00023969002
0.00015929166
0.00010295561
0.00011503129
0.00022189587
0.00036027224
0.00051283566
0.00079711502
0.0012024996
0.0015508694
0.0014821
0.00093697881
0.00039468091
0.0049823777
0.0022824671
0.0010570653
0.00078437886
0.00087140074
0.00096837496
0.00094365778
0.00081870612
0.00066331062
0.00051957707
0.00039678453
0.00029357935
0.00020971671
0.00014471456
9.6102117e-05
0.00012070323
0.00024378627
0.0003713805
0.00050946543
0.0007193985
0.00099014032
0.0012325951
0.0012287828
0.00091403015
0.00031972943
0.00018350936
0.010570032
0.0026079972
0.0006903667
0.0002305871
0.00029648381
0.00050073338
0.00067143963
0.00072009389
0.00064644909
0.00051294059
0.00038532518
0.00028870557
0.00021779076
0.00016315501
0.00011809367
8.1101369e-05
0.00011402469
0.00022661512
0.00033069534
0.0004492768
0.00059597951
0.00077081912
0.00093220991
0.00095445604
0.00077833465
0.00032235656
8.3004359e-05
0.0049314047
0.0010464407
0.00014583102
9.267444e-05
0.00015314413
0.00026680646
0.00037669926
0.00044053921
0.00043740297
0.0003716536
0.00027815628
0.00019480408
0.00013708998
0.00010180359
7.8079071e-05
6.0096141e-05
9.8257568e-05
0.00018939634
0.00027149679
0.00035773529
0.00044918414
0.00055834898
0.00066837651
0.00070366541
0.00060145627
0.0002854521
7.497298e-05
0.0019553351
0.00016607248
8.4886399e-05
0.00010433966
0.00012667189
0.00015456918
0.00017443669
0.00018669086
0.0001870453
0.0001677465
0.00013155116
9.1979368e-05
7.0727556e-05
5.7741622e-05
4.446805e-05
4.1434998e-05
8.2179963e-05
0.0001502599
0.00020964749
0.00025967535
0.00031002692
0.00037777879
0.00045748619
0.00049870805
0.00043861558
0.00023673883
6.2570357e-05
0.00013531826
0.00010555695
7.0638425e-05
0.0001648223
0.00019933602
0.00018183065
0.00015153471
0.0001391676
0.00012634703