/*--------------------------------*- C++ -*----------------------------------*\
| =========                 |                                                 |
| \\      /  F ield         | OpenFOAM: The Open Source CFD Toolbox           |
|  \\    /   O peration     | Version:  2406                                  |
|   \\  /    A nd           | Website:  www.openfoam.com                      |
|    \\/     M anipulation  |                                                 |
\*---------------------------------------------------------------------------*/
FoamFile
{
    version     2.0;
    format      ascii;
    arch        "LSB;label=32;scalar=64";
    class       volScalarField;
    location    "350";
    object      k;
}
// * * * * * * * * * * * * * * * * * * * * * * * * * * * * * * * * * * * * * //

dimensions      [0 2 -2 0 0 0 0];

internalField   nonuniform List<scalar> 
150387
(
0.00016827224
5.4694493e-05
4.8659844e-05
4.6368215e-05
4.6386862e-05
4.508324e-05
0.00011504726
9.2492021e-05
0.0001740079
7.4235739e-05
6.0660883e-05
5.4405302e-05
4.9496189e-05
4.5754711e-05
4.4625799e-05
4.3835679e-05
4.4623283e-05
0.00014699237
0.00025684823
0.00042605625
0.0003371519
9.2162092e-05
0.00012564047
0.00014189522
0.00014312482
0.00013490178
0.0001175715
9.5572686e-05
7.3415023e-05
5.7713838e-05
5.2995649e-05
0.00022475105
0.0002861996
0.0003907295
0.00040453472
0.00037133463
0.00010935172
0.00017603251
0.00021646475
0.00028116711
0.00030663049
0.00029071073
0.00025379193
0.00021113555
0.00017040248
0.00013437919
0.0001041341
8.0429254e-05
6.4911708e-05
0.00024853111
0.00030478547
0.00037142933
0.00039744554
0.00050220338
0.0004506667
0.00017982825
0.00019436189
0.00034272121
0.00049556897
0.00056125537
0.00052838859
0.00045008318
0.00036181426
0.00028076094
0.00021270554
0.0001587656
0.0001181613
8.9897003e-05
7.4052316e-05
0.00023695923
0.00030255354
0.00033755983
0.00036248455
0.00051281026
0.00052278156
0.0003596054
0.00016270064
0.00046634846
0.00068050843
0.00075427535
0.00071740245
0.00063236218
0.00053100767
0.00042933052
0.00033511529
0.00025284129
0.00018494774
0.00013245978
9.5232616e-05
7.7897103e-05
0.00020116974
0.00027663325
0.00027883274
0.00034040618
0.00047604258
0.00052348867
0.00044744304
0.00024265379
8.9887531e-05
0.0003852922
0.00074809817
0.00085004041
0.00083032359
0.00074675061
0.00063599427
0.00052413632
0.00042283579
0.00033376167
0.00025624846
0.0001905299
0.00013763771
9.731724e-05
7.7454049e-05
0.00017316512
0.00022607061
0.00022379891
0.00032307393
0.00042783372
0.0004720947
0.00045182777
0.00028171589
0.00011391347
7.8500888e-05
0.00019543184
0.00067971976
0.00074658559
0.00078475021
0.0007481949
0.00066226808
0.00056325425
0.0004682113
0.00038081828
0.00030201332
0.00023265489
0.00017406444
0.00012777491
9.2252528e-05
7.3708179e-05
0.00014776256
0.00016663793
0.00019903106
0.00029605788
0.00037220607
0.00040363343
0.0003979612
0.00027220263
0.00014311557
5.5327946e-05
0.00062506738
0.00074207998
0.00074069336
0.00066053723
0.00057545758
0.00050465403
0.00043923014
0.00037194384
0.0003055266
0.00024386022
0.00018866008
0.00014261745
0.00010730345
8.090251e-05
6.7691358e-05
0.00011661854
0.00012356962
0.0001797139
0.00025817757
0.00031220735
0.00033345045
0.00032266003
0.0002313319
0.00014718045
5.6989337e-05
7.0524075e-05
0.00063952893
0.00068276487
0.00070815774
0.00066122708
0.00055622472
0.0004373367
0.00033917562
0.00026952739
0.00021636268
0.00017143469
0.00013294464
0.00010339537
8.178003e-05
6.6396898e-05
5.978651e-05
8.8050236e-05
0.00010112059
0.00015639148
0.00021497803
0.00025242695
0.00026596394
0.00024793401
0.0001843353
0.00013427243
5.7103167e-05
4.3995602e-05
0.0003633467
0.00070129075
0.00057158933
0.00050145185
0.00050086063
0.00048677246
0.00041758453
0.00031901787
0.00022698709
0.0001592285
0.00011574754
8.8695779e-05
7.0145704e-05
5.7571194e-05
5.104389e-05
5.1888296e-05
6.6091688e-05
8.6611695e-05
0.0001293264
0.00017110389
0.00019659267
0.00020377086
0.00018347505
0.00014211974
0.00011505506
5.4459253e-05
3.7590742e-05
0.00029128289
0.00051332847
0.00053246294
0.00044990027
0.00035144167
0.00031608584
0.00029906555
0.00025595924
0.00019348391
0.0001345542
9.3085358e-05
6.7085623e-05
5.0557867e-05
4.0029464e-05
3.6115418e-05
4.3036916e-05
5.2657942e-05
7.3288496e-05
0.00010358999
0.0001314376
0.00014794318
0.0001500719
0.00013196721
0.000108211
9.4557135e-05
4.8698825e-05
3.2683951e-05
7.4392507e-05
0.00022099788
0.00031270537
0.00035340331
0.0003316967
0.00026834775
0.0002033561
0.00016459585
0.00014404843
0.00012147886
9.5681191e-05
7.281769e-05
5.1117548e-05
4.5532917e-05
3.1106338e-05
2.1347183e-05
3.8380655e-05
4.3596051e-05
6.1249442e-05
8.1260952e-05
9.8134632e-05
0.00010754498
0.00010615396
9.3754241e-05
8.2877354e-05
7.5278925e-05
4.1934878e-05
3.123935e-05
4.1287466e-05
7.131342e-05
8.9389273e-05
9.5113607e-05
9.6870108e-05
9.4313071e-05
9.269643e-05
9.0700014e-05
8.5376448e-05
7.7375336e-05
6.8419542e-05
5.8380256e-05
4.8661548e-05
3.0729963e-05
2.0240269e-05
1.9592047e-05
3.3210112e-05
3.9189043e-05
5.1633644e-05
6.3483179e-05
7.2184945e-05
7.5928428e-05
7.411553e-05
6.9671427e-05
6.6953181e-05
5.9593387e-05
3.7079338e-05
3.1463576e-05
3.28317e-05
4.6137844e-05
4.5475462e-05
6.783371e-05
9.7196926e-05
0.00011246044
0.00012658342
0.00013302003
0.00012676064
0.0001114645
9.1554812e-05
6.9642561e-05
4.6479611e-05
2.2891727e-05
2.0743987e-05
2.5536113e-05
3.1027127e-05
3.6902467e-05
4.4663258e-05
5.3727137e-05
6.3016319e-05
7.2486719e-05
7.8113992e-05
8.0011192e-05
7.4090442e-05
5.8977445e-05
4.1937748e-05
3.2566767e-05
4.4661014e-05
4.7046736e-05
4.3628709e-05
9.0812936e-05
0.0001342354
0.00016360647
0.00019369725
0.00020093086
0.00018646796
0.00015845378
0.00012220771
8.6415964e-05
5.7783898e-05
3.4877585e-05
3.4409685e-05
3.0150254e-05
3.4337057e-05
4.5125501e-05
5.6652335e-05
7.6111662e-05
0.00010263484
0.00013180103
0.00015810729
0.00019764811
0.00025018478
0.0002586807
0.00019816918
0.00011444313
8.3049381e-05
5.5438069e-05
4.7304948e-05
0.00011453333
0.00017729605
0.00023070747
0.00027791906
0.00028281681
0.00026032594
0.0002184565
0.00016339502
0.00011043627
7.65183e-05
5.573271e-05
4.6161015e-05
4.6592885e-05
5.1467343e-05
6.3487842e-05
7.6585658e-05
9.026825e-05
0.00011682736
0.00017018175
0.00023029435
0.00026929217
0.00030082197
0.00033047402
0.00032521615
0.0002527016
8.8823885e-05
0.00011553442
5.3360323e-05
0.00012987185
0.00022414159
0.00031325949
0.00037747057
0.00037796962
0.00034622333
0.00028753048
0.00021310818
0.00014236082
0.00010547976
8.2646532e-05
6.1026111e-05
5.4064353e-05
7.0479704e-05
9.0332796e-05
0.00011343126
0.00013459185
0.00014953999
0.00017809186
0.00024365435
0.00032222004
0.00036387201
0.00036193414
0.00035170469
0.00034661372
6.3073435e-05
0.00013480087
0.00026914427
0.0004084054
0.0004888468
0.00048737208
0.00044281908
0.00036324668
0.00026581775
0.00018768564
0.00015707228
0.00012166865
8.352222e-05
6.2168667e-05
8.7212188e-05
0.00011829596
0.00015633894
0.00019725561
0.00023039009
0.00024653925
0.00026066567
0.00031734164
0.00039534477
0.00044617756
0.00046764462
0.00042995392
8.3696487e-05
0.00012837701
0.00030076629
0.00050437078
0.00060618982
0.00061080666
0.00054809255
0.00044154693
0.00032128029
0.00025971463
0.00023440706
0.00016995262
0.00010456153
6.9715176e-05
9.9371781e-05
0.00014049825
0.00019297729
0.00025124808
0.00030838808
0.00035749224
0.00038567558
0.00038931867
0.00039754976
0.00043052053
0.00039711159
0.00032200889
0.00010530138
0.00029797852
0.00057286869
0.00071686944
0.00073988035
0.00065859262
0.00051446575
0.00038901235
0.00036573742
0.00031938343
0.00020966759
0.00012237182
7.5785831e-05
0.00010460561
0.0001525696
0.0002139343
0.00028566536
0.00036280771
0.00043763427
0.00050064361
0.00054226329
0.0005432187
0.00045866913
0.00025976842
0.00010086573
0.00024765163
0.00056401273
0.00079499921
0.00085202768
0.00076224747
0.00057895359
0.00050091647
0.00048642287
0.0003779733
0.00023131047
0.00014860683
7.8556777e-05
9.9848206e-05
0.00015115202
0.00021708598
0.00029410171
0.00037856367
0.00046633061
0.00054442639
0.00057816506
0.00052624936
0.00034747865
5.5440032e-05
0.00017356424
0.00044022361
0.00078918816
0.00090552125
0.00082914787
0.00064708083
0.00063937863
0.00057147235
0.00038994228
0.00027042374
0.00019926595
7.7349825e-05
8.5825771e-05
0.00012946825
0.00019189334
0.00026934009
0.00035585849
0.00043379998
0.00047009266
0.00042754199
0.00028800738
0.00010346057
0.00026577879
0.00062866712
0.00086047355
0.0008133536
0.00073039812
0.00075698706
0.00057818179
0.00041052181
0.00035136814
0.00025807521
7.3684604e-05
7.4007583e-05
0.00010099399
0.00013925029
0.00018634627
0.00023523401
0.00026803278
0.00025522396
0.00019545584
0.00010689887
0.00030612196
0.00062271427
0.00071916202
0.00079293967
0.00078255492
0.0005491928
0.00050784657
0.00040566025
0.00029242339
6.4721603e-05
6.5797449e-05
8.5269917e-05
0.0001046032
0.00012070536
0.00012730131
0.00011471873
8.5573111e-05
8.1990833e-05
0.00012006448
0.00058247035
0.00072501562
0.0007072552
0.0006109219
0.00059242639
0.00037655947
0.00027040357
4.9077158e-05
3.6822131e-05
4.2038145e-05
4.5828937e-05
4.6584896e-05
4.6481743e-05
4.6780579e-05
9.9943882e-05
0.00039162459
0.00059106533
0.0007379974
0.00053574503
0.0002994456
0.00017695056
4.1978762e-05
3.0194086e-05
3.1557179e-05
3.6030059e-05
4.1405766e-05
7.8584169e-05
0.00016537022
0.00019942806
0.000130288
8.3840495e-05
3.1313396e-05
6.4483148e-05
0.00010354435
8.5978141e-05
6.4775052e-05
4.9642608e-05
4.1601541e-05
3.7812363e-05
3.6912978e-05
3.5634833e-05
0.00018040855
0.00012773681
0.00017560787
0.00018656627
0.00018425576
0.00017312937
0.00015037639
0.00012015767
9.1915949e-05
6.6675152e-05
5.4568201e-05
0.00017233544
0.00051306682
0.00056748057
0.00049494702
0.00017304349
0.00031255539
0.00040845774
0.00044817522
0.00043833264
0.00039156092
0.0003306156
0.00026781387
0.00021020084
0.00016377278
0.00011778169
9.4798816e-05
0.0001263005
0.00035307503
0.00068489205
0.00068846406
0.00052134999
0.00026466181
0.00060378606
0.00074078284
0.00076686711
0.00070823454
0.00061206367
0.00050858405
0.00041277362
0.0003302108
0.00026183144
0.00020735438
0.00015246495
0.00015633808
0.00017806371
0.00033916464
0.00061866269
0.00082072213
0.00077118496
0.00039359308
0.00040500364
0.00093338164
0.0011485634
0.0011784587
0.0010761288
0.00091501755
0.00074426558
0.0005913606
0.00046386403
0.00036176752
0.00028287077
0.00022382347
0.00016695562
0.00020901416
0.00028378361
0.00041470295
0.00059391347
0.00084571723
0.0009042466
0.00065445086
0.00027380226
0.00054719146
0.0011832472
0.0014321194
0.0014614632
0.0013473709
0.0011718259
0.00098042642
0.00079328127
0.00062456598
0.00048494151
0.0003752695
0.00029079286
0.00022559524
0.00016399459
0.00023567149
0.00037247051
0.00047785856
0.00059555158
0.00081923935
0.00091944561
0.00079386063
0.00043854531
0.00014917946
0.0011015008
0.0014613589
0.0015433872
0.0014619382
0.0013047619
0.0011196735
0.00093394775
0.00076267092
0.00060977156
0.00047974318
0.00037273594
0.00028734088
0.00021696781
0.0001505226
0.00024125873
0.00039650521
0.00047889898
0.00058654095
0.00076351313
0.00085748589
0.00080786396
0.00052874978
0.00022811743
0.00011132617
0.00084397713
0.0013669032
0.0013847422
0.0013207529
0.0012279335
0.0011063741
0.00096376868
0.00081590989
0.00067630876
0.00055044603
0.0004401881
0.00034549932
0.00026659068
0.0001952811
0.00013139221
0.00022050712
0.00035311434
0.00043673623
0.00055103724
0.00068292849
0.00075572352
0.00073075039
0.00053567076
0.00029722097
0.00010637976
0.0011675622
0.0011828584
0.0011577424
0.0011237176
0.0010510663
0.00093614752
0.00080097102
0.00066806465
0.00054948635
0.00044755581
0.00036025024
0.00028510896
0.00022069468
0.00015897453
0.00010799229
0.00017776271
0.00028138355
0.00038076429
0.00049219526
0.00058510873
0.00063407216
0.00061054042
0.00048416958
0.00032358481
0.00012468263
7.8657605e-05
0.00075168194
0.000875152
0.00078663473
0.00081189082
0.00087347556
0.00088667552
0.00081827822
0.00068868206
0.00054301338
0.0004145231
0.00031554389
0.00024301543
0.00018957059
0.00014920236
0.00011090292
8.2012807e-05
0.00013000809
0.00021767597
0.00032507117
0.00041948052
0.000480232
0.00050634102
0.00048482298
0.00041040674
0.00031025018
0.00013328023
6.5863837e-05
0.00076077563
0.000603156
0.00053835842
0.00060073289
0.00066529297
0.00068747074
0.00065494977
0.00056937877
0.00044798729
0.00031860386
0.00021110651
0.00013893846
9.8408056e-05
7.8037646e-05
6.4962875e-05
5.9231823e-05
9.2553975e-05
0.00017289646
0.00027138466
0.00034212183
0.00037843764
0.00038844306
0.0003740313
0.00033556248
0.000271947
0.00013133838
5.6421911e-05
0.00034723017
0.0002329108
0.00030943853
0.00040280104
0.00043299994
0.00041212635
0.00037427627
0.00032420585
0.00025951181
0.0001879975
0.00012268158
7.7122272e-05
5.6877398e-05
4.5481775e-05
3.8638607e-05
4.4291351e-05
7.0606429e-05
0.00014141589
0.00021913853
0.00026737515
0.00028768633
0.00029012938
0.00028514287
0.00026982683
0.00022708869
0.00012379046
4.7847467e-05
6.9149293e-05
8.1032335e-05
0.00011624081
0.00019857283
0.00024193004
0.00023772637
0.00020677854
0.00017078682
0.00014033954
0.00011292706
8.6928707e-05
6.5191702e-05
5.0480197e-05
4.7980576e-05
4.2738831e-05
2.1211724e-05
3.7096645e-05
6.1046712e-05
0.00011626607
0.00016992339
0.00020184846
0.00021508117
0.00021860071
0.00022149773
0.00021780684
0.00018457959
0.00010748568
3.7846081e-05
5.6635548e-05
4.3044276e-05
0.00010476724
0.00019239011
0.0002307694
0.00023798926
0.00023318126
0.00022092952
0.00019949811
0.00016796808
0.00012766525
8.4230888e-05
4.922962e-05
2.8055246e-05
2.8733595e-05
1.7151942e-05
3.4097601e-05
5.4188923e-05
8.7973329e-05
0.00011964589
0.00014078239
0.00015420512
0.00016476673
0.00017565346
0.00017835793
0.00015193206
8.7668854e-05
2.9738052e-05
4.7967285e-05
4.5174477e-05
0.00014241726
0.00026618825
0.00032621741
0.00034925157
0.00035628232
0.00034787464
0.00032102638
0.00027145132
0.0001990342
0.00011520159
5.5771619e-05
3.1434483e-05
2.5019224e-05
2.1692504e-05
3.3643612e-05
4.4698488e-05
6.0221022e-05
7.8655729e-05
9.700265e-05
0.00011457607
0.00013279453
0.00014729427
0.00014598526
0.00011837738
6.4677007e-05
2.7359388e-05
3.7102083e-05
5.4684356e-05
0.00016500995
0.00032586697
0.00040971081
0.00045648328
0.00047514605
0.00046749825
0.0004326562
0.00036588495
0.00026686115
0.00015446714
7.774034e-05
4.749433e-05
4.60108e-05
4.2070641e-05
4.5910736e-05
5.7910766e-05
8.3424737e-05
0.00012714569
0.00018008209
0.00022195874
0.00023955445
0.00023099292
0.00018679306
0.0001075077
5.0241934e-05
3.2101576e-05
3.2629087e-05
7.311192e-05
0.00017853977
0.00039146288
0.00051079951
0.00059428254
0.00062750133
0.00061528636
0.0005619586
0.00047061221
0.00034611599
0.00021766469
0.00013121511
7.0033995e-05
5.322948e-05
7.3846058e-05
9.6589257e-05
0.0001203593
0.00015502839
0.0002148995
0.0003028116
0.00038227599
0.00039833268
0.00033425747
0.00022355225
0.0001298565
0.00011099235
8.8077297e-05
8.5423294e-05
0.00018248161
0.0004410801
0.00061950838
0.00075646513
0.00081185726
0.00078792731
0.00070712973
0.00058642801
0.0004433623
0.00031739273
0.00022564349
0.00011629088
6.4507738e-05
0.00010594591
0.00016093389
0.00020946952
0.00025840022
0.00031314403
0.00038393371
0.00046279061
0.00049867517
0.00043949696
0.0003194264
0.00025172639
0.00032065461
0.00040105811
0.00017037685
0.00044972774
0.00071830998
0.00093682437
0.0010157914
0.00097860356
0.00086577202
0.00071584598
0.00056823069
0.00045854181
0.00034656635
0.00017586127
8.1988915e-05
0.0001316466
0.00021204254
0.00028571865
0.00036088398
0.00043058019
0.00049318945
0.00054878179
0.00058708023
0.00058183148
0.00053659715
0.00052370746
0.00059422186
0.00058531836
0.00010785989
0.00040469857
0.00077559644
0.0011051143
0.0012220228
0.0011812024
0.0010327203
0.0008599333
0.0007228298
0.00061844682
0.00046078895
0.00023378022
0.0001026781
0.00014985441
0.00024356394
0.00033533594
0.00043766975
0.00053747134
0.00062397794
0.00068641423
0.00072119119
0.00073708114
0.00075180095
0.0007627957
0.00064771415
0.00058183964
0.00012831649
0.00030320072
0.00074269098
0.0012079116
0.0014075892
0.0013789473
0.001194861
0.0010125118
0.00088573596
0.00075367634
0.00054243802
0.00028350451
0.00012984698
0.00016232617
0.00025842616
0.00036043524
0.00048512485
0.00061618553
0.00074171366
0.00084706575
0.00091766788
0.00093895324
0.00087528483
0.00067347532
0.00048810701
0.00013308913
0.00059433428
0.0011686222
0.0015209052
0.0015431046
0.0013333833
0.0011546479
0.0010067899
0.00081929123
0.00058080428
0.00032342211
0.00016377508
0.00017246926
0.00026224503
0.00036335685
0.00049746492
0.00064496496
0.00078712201
0.00090654326
0.00097215282
0.00094075721
0.00077084624
0.00057408507
0.00024867991
0.00093262479
0.0014724132
0.0016164334
0.0014311263
0.001258851
0.001036871
0.00080508281
0.00057000243
0.00033231505
0.00018910924
0.00018466096
0.00026205687
0.00034772997
0.00046268272
0.00059500324
0.0007241934
0.00080734244
0.00079132385
0.00063761249
0.00048139828
0.00030027161
0.00041521754
0.0011865564
0.0015031034
0.0014753654
0.0013096379
0.00098357869
0.00074511957
0.00050237254
0.00027408781
0.00018514273
0.00019327792
0.0002544253
0.00031299889
0.00038545041
0.00045728485
0.00050800326
0.00050063649
0.00040834419
0.00031730341
0.00020178478
0.0005559877
0.0010876791
0.0014079404
0.0013150949
0.00093263612
0.0007019857
0.00040816234
0.00017881825
0.00014344043
0.00017319873
0.00021448892
0.00025438761
0.00029089318
0.00030203173
0.00027281693
0.00020255792
0.00014300489
0.00012588289
0.00047403612
0.0010080589
0.0012307497
0.00096057783
0.00076584286
0.00041608486
0.00012051617
6.9108564e-05
9.6729903e-05
0.00011665993
0.00012259263
0.0001235398
0.00011342721
9.920508e-05
9.6952968e-05
0.0009326304
0.0007784879
0.00089765015
0.00061517713
0.00023571001
3.8629557e-05
2.8269134e-05
3.5471261e-05
4.5078287e-05
5.3678554e-05
6.3389351e-05
7.4583932e-05
0.00034395673
0.00029418538
7.1777013e-05
3.4602449e-05
5.0767132e-05
0.00010913981
9.3908348e-05
7.7529482e-05
6.2045372e-05
4.7930209e-05
3.6775876e-05
3.5113449e-05
3.7847556e-05
0.0003233977
0.00017120017
0.00027020672
0.00029240716
0.00028481937
0.00026313651
0.00022037808
0.00016781001
0.00011863093
7.8732507e-05
6.3634858e-05
0.00026079797
0.00069758271
0.0007931412
0.00073391188
0.00025505594
0.00048088454
0.00064344189
0.0006930563
0.00065705875
0.00056998672
0.0004689438
0.00037053175
0.00028140693
0.00020528503
0.00014117108
8.303126e-05
0.00011463567
0.00039110207
0.00089053617
0.00095212492
0.00078487869
0.00039090979
0.00088629532
0.0010854548
0.0011181063
0.0010281135
0.0008824619
0.000723871
0.00057572909
0.00044803377
0.0003420194
0.00025530869
0.00018262234
0.00011733868
0.00010830511
0.00024026141
0.00068800005
0.0010691871
0.0010662391
0.00057331965
0.00058587808
0.0012914415
0.0015761901
0.0016123816
0.0014755478
0.0012567277
0.0010214199
0.00080607972
0.00062258366
0.00047524175
0.00035997472
0.00027219563
0.00019922341
0.00015092527
0.00014360273
0.00025413512
0.00058664933
0.0010286258
0.0012122618
0.00092514353
0.00040255366
0.00083236238
0.0015995155
0.0018902135
0.0019123129
0.0017661738
0.0015434075
0.0012957554
0.0010482787
0.00082271895
0.00063202012
0.00047969162
0.0003623821
0.00027579711
0.00020041161
0.00017626094
0.00022476177
0.00036140122
0.00059605555
0.00096510813
0.0012148475
0.0011107849
0.00066040919
0.00022587282
0.0015102616
0.0018969312
0.0019252224
0.0017977308
0.0016195529
0.0014164311
0.0012015168
0.00098897788
0.00079122059
0.00061842234
0.00047505169
0.00036152837
0.00027500125
0.0001925455
0.00019448508
0.00030837194
0.0004620703
0.00063749885
0.00091711002
0.0011364363
0.001132937
0.00079741386
0.00036121117
0.00016526211
0.0012188401
0.0017967242
0.0016866615
0.0015390561
0.0014308133
0.0013289607
0.0011978835
0.0010408011
0.00087623947
0.00071874836
0.0005764433
0.00045266893
0.00034953482
0.00026395812
0.00017655401
0.00019864642
0.00034771614
0.00049943999
0.00065107425
0.00085419731
0.0010132497
0.001033251
0.00081013866
0.0004821438
0.00017652192
0.0015621824
0.0013596965
0.0011629696
0.0011114998
0.001122773
0.0010973431
0.0010042206
0.00086970141
0.00072982505
0.00060282439
0.00049189758
0.00039471967
0.00031020168
0.00023286972
0.00015116771
0.00018454878
0.00033676011
0.00047878972
0.00061684065
0.00075802202
0.0008598562
0.0008723747
0.00073424116
0.00051319901
0.00019937016
9.2108779e-05
0.00097078615
0.0010694938
0.00071755132
0.00061132413
0.00068781288
0.00080820254
0.00087010965
0.00083370429
0.00072004247
0.00058059911
0.00045611347
0.00035996689
0.00028723566
0.00023003012
0.00017565136
0.0001167063
0.00015590575
0.00029566118
0.0004282952
0.00054462208
0.00063445971
0.00069174778
0.00069763549
0.00062072352
0.00047947993
0.00021575804
8.0777431e-05
0.00097883175
0.00056742927
0.00027928824
0.00029249634
0.00040201616
0.00050955041
0.00058035906
0.00059408816
0.00054184236
0.00043885983
0.00032263913
0.0002257157
0.00016174279
0.00012655036
0.0001031637
8.0428908e-05
0.00012509353
0.00024999206
0.00036755742
0.00045205583
0.00050167293
0.00052992771
0.00053665529
0.00050172555
0.00041061769
0.0002094431
7.6599229e-05
0.00045884464
0.00014691243
0.00014811848
0.00020177636
0.00025864158
0.00028671428
0.00029317667
0.0002858004
0.00026121732
0.00021700894
0.00016039184
0.00010715302
8.0667559e-05
6.59957e-05
5.4916529e-05
5.4437977e-05
0.00010288026
0.00021004635
0.00030297841
0.00035527539
0.00037830249
0.00039174169
0.00040269372
0.00039488939
0.00033587559
0.0001936841
6.9652932e-05
6.0357114e-05
6.6636367e-05
8.8168323e-05
0.00017748252
0.00022582891
0.00023244152
0.00021890252
0.00019661872
0.00017177164
0.0001452129
0.00011618271
8.5865251e-05
5.9896718e-05
6.5186751e-05
8.5914572e-05
3.2537479e-05
4.3871924e-05
9.209672e-05
0.00017568943
0.00023917094
0.00026833701
0.00027823129
0.00028701279
0.00030220586
0.00030707746
0.00026624393
0.00016233895
5.7978139e-05
5.3962606e-05
4.6408543e-05
0.00016158687
0.00027675343
0.00032514677
0.00032892059
0.00031873422
0.00030590009
0.00028666711
0.00025405215
0.0002034906
0.00013550026
7.2322579e-05
3.74066e-05
5.5758397e-05
2.3613895e-05
4.3369368e-05
8.2687131e-05
0.00013674896
0.00017532983
0.0001936266
0.00020232751
0.000212802
0.00022920286
0.00023659827
0.0002043365
0.00012313567
3.7552594e-05
4.7750282e-05
4.3511399e-05
0.00021667432
0.000370482
0.0004461671
0.00046396965
0.00045970285
0.00044787566
0.00042465877
0.00037785943
0.00029766524
0.0001863939
8.5938988e-05
5.1134799e-05
5.9931181e-05
2.6971201e-05
4.3000975e-05
6.2623757e-05
8.6734622e-05
0.00010798557
0.00012385315
0.00013768413
0.00015395374
0.00017159994
0.00017864766
0.00015358489
8.8272628e-05
3.1838728e-05
4.1581731e-05
6.2745078e-05
0.00026084629
0.00047284371
0.00058103509
0.00062196144
0.00062413946
0.0006057934
0.00056671843
0.00049636379
0.00038549473
0.00024511078
0.00012370379
6.2331215e-05
6.064281e-05
6.1201152e-05
6.5978358e-05
8.1322114e-05
0.00010875065
0.00014388299
0.00017076903
0.0001784472
0.00017057708
0.00015498002
0.00013208431
9.5677917e-05
4.8785096e-05
2.801098e-05
3.4229459e-05
8.2967223e-05
0.00028453165
0.00058057421
0.00073829469
0.00081834719
0.00083189467
0.00079953847
0.00073202367
0.00062782678
0.00048724259
0.00033490193
0.00020535167
9.0494655e-05
7.2269941e-05
0.00011559079
0.000148254
0.00017960086
0.00022369615
0.00028259658
0.00033077275
0.00032541797
0.00025740986
0.00016749815
0.00010463126
7.9379817e-05
0.00011110145
0.00011575408
9.6962393e-05
0.0002926732
0.00067250066
0.00090408791
0.0010445676
0.0010752793
0.0010192976
0.00091245594
0.00077094333
0.00061165862
0.0004640844
0.00031769631
0.00013732131
8.6893344e-05
0.00016396056
0.00023481632
0.00029376063
0.00035146932
0.00041241426
0.00046700767
0.00047054114
0.00038113143
0.00023777109
0.00015474234
0.00018067302
0.00037512488
0.00053584548
0.0002686108
0.00070897058
0.0010531489
0.0012902036
0.0013405938
0.001253769
0.0011000996
0.00092642329
0.00076325986
0.0006156303
0.00042205679
0.00018258155
0.00010491082
0.00019479048
0.00029325447
0.00038517637
0.00047399369
0.00054801584
0.00059961254
0.00061103318
0.00055943376
0.00046410842
0.00042380955
0.00053466802
0.00075056871
0.00075115982
0.00014923484
0.00065214342
0.0011407302
0.0015158403
0.0016031433
0.0014893609
0.0012826334
0.001086117
0.00092068991
0.00073807558
0.00047925993
0.00021145971
0.00012324379
0.00021259514
0.00032537533
0.00044554489
0.00057371068
0.00068605816
0.00076409969
0.00079638584
0.00079304226
0.00079880649
0.00086028492
0.00096654798
0.0008829002
0.00076792248
0.00017343819
0.00047676864
0.0010988942
0.0016521288
0.0018350139
0.0017102059
0.0014435486
0.0012232229
0.0010271432
0.0007745042
0.00047455547
0.00022421219
0.00014510876
0.00022560621
0.00034356899
0.00048394244
0.00064794384
0.000809505
0.00094758165
0.0010495293
0.0011182359
0.0011608408
0.0011367895
0.00093487211
0.00070269779
0.00019150306
0.00088155854
0.0016026485
0.0019778062
0.0018987086
0.0015738762
0.0013015256
0.0010273981
0.00070702695
0.00041462439
0.00022060733
0.00017070241
0.00024341101
0.00036041741
0.00050790404
0.00069077312
0.00088589793
0.0010665957
0.0012097684
0.0012891969
0.0012562272
0.001056298
0.00082422384
0.00037301814
0.0012898346
0.0019319823
0.0020151581
0.0016889955
0.0013240991
0.00093677376
0.00057487371
0.00031687385
0.00019459175
0.00019545603
0.0002703447
0.00037910357
0.00051434126
0.00068188102
0.00086615708
0.0010384133
0.001143983
0.0011139759
0.00090348305
0.00068691881
0.00045128391
0.00058079015
0.0015968991
0.0019446166
0.0018092213
0.001369015
0.00086016231
0.00046575295
0.00022051554
0.00015576598
0.00020670259
0.00028864478
0.0003798737
0.00048465291
0.00060223369
0.00071399496
0.00078774154
0.00077170973
0.0006276201
0.00048163493
0.00030530747
0.00080086253
0.001493302
0.0018521223
0.0015104929
0.00093517011
0.00050546283
0.00020044409
0.00012284135
0.00017906561
0.00025666449
0.00032376356
0.00039731721
0.00046438387
0.0004966165
0.00046342014
0.00033697447
0.00023469958
0.00018837894
0.00072669973
0.0014144986
0.0016264423
0.0011964469
0.00081755048
0.00037582401
0.00010719205
9.7950194e-05
0.00015375438
0.00018629968
0.00020192242
0.0002063876
0.00018824765
0.00017467228
0.00014407535
0.0012416251
0.0010539209
0.0011904659
0.00082335416
0.00025112042
3.6327542e-05
3.8204093e-05
5.9637295e-05
6.9555986e-05
7.5627968e-05
7.743909e-05
9.1113024e-05
0.00047671917
0.00037957919
0.00012631963
3.7210112e-05
4.9514635e-05
0.00013376301
0.00010994448
8.8812263e-05
7.3948113e-05
5.7279436e-05
4.3163022e-05
3.6876929e-05
5.5745867e-05
0.0005175042
0.00023641965
0.00039936008
0.00043612248
0.00042209862
0.00038380026
0.00031152754
0.00022791007
0.00015315209
8.7971571e-05
0.00010190807
0.00040994188
0.00095026052
0.0010469304
0.00095440796
0.00035980435
0.00069665056
0.00093031669
0.00099006298
0.00092754244
0.00079769905
0.00065200879
0.00051071342
0.00038261662
0.00027194067
0.0001738611
0.00010130003
0.00016054087
0.00051421285
0.0011619434
0.0012480538
0.0010621096
0.00054408776
0.0012230296
0.0014879653
0.0015277762
0.0014063084
0.001209303
0.00099158954
0.00078587344
0.0006076348
0.00045974815
0.00033560134
0.00022844245
0.00013142458
0.00010767763
0.0002439434
0.0007908206
0.0013400377
0.0013850891
0.00078322562
0.00079532833
0.0017001334
0.0020418699
0.0020732426
0.0019021202
0.001633194
0.0013400865
0.0010647717
0.00082178277
0.00062259696
0.00046536734
0.00034067324
0.00023993948
0.00015281809
0.00011152631
0.00017431482
0.00054665705
0.0011886916
0.0015302684
0.0012385972
0.00057014447
0.001141636
0.0020355378
0.0023423881
0.0023239348
0.0021364187
0.0018831803
0.0016023018
0.001310506
0.0010338913
0.00079192445
0.00059439152
0.00044017671
0.00032309172
0.00023166406
0.00016372668
0.00014209972
0.00023032208
0.00051967934
0.0010482221
0.0014889383
0.0014620455
0.00092973584
0.00033479345
0.001942622
0.0023090733
0.0022158193
0.0020124781
0.0018233819
0.0016341735
0.0014196775
0.0011856379
0.00095281999
0.00074117037
0.00056205066
0.00041856427
0.00031022894
0.00022111592
0.00017360055
0.00021400097
0.00036110777
0.00060144529
0.00099367974
0.001378121
0.001480988
0.0011182326
0.00053660393
0.00024321908
0.001599579
0.0022114392
0.0018578051
0.0015639251
0.0014450836
0.0014005432
0.0013279672
0.0011951052
0.0010249169
0.0008462057
0.00067740766
0.00052756708
0.00040137537
0.00030127595
0.00020863145
0.00018320198
0.00028675708
0.00047107089
0.000679545
0.00096651093
0.0012455955
0.0013608233
0.0011378406
0.00071449665
0.00027481335
0.0020146504
0.0015075244
0.0010361152
0.00089917009
0.00097796406
0.0010757475
0.001080486
0.00098877162
0.00085154237
0.00071116616
0.00058303663
0.00046830349
0.0003670344
0.00027906099
0.00018749594
0.00018297482
0.00032533212
0.000513196
0.00069326473
0.00089613057
0.0010811554
0.0011668488
0.0010382417
0.00075370879
0.00030192904
0.00012568573
0.0011694452
0.0013162503
0.00066041415
0.00037606685
0.00040351926
0.00057217523
0.00074298205
0.00082589617
0.00079307385
0.00068212508
0.00055450542
0.00044601536
0.00036040553
0.00029059847
0.00022626791
0.00015176239
0.00016981547
0.0003267496
0.00049275053
0.00063700611
0.0007704666
0.00088689854
0.00094985316
0.00088425763
0.00069960123
0.00033011224
0.00011297617
0.0011937033
0.00063403612
0.00021933704
0.00016499616
0.00020875122
0.0003026474
0.00041017295
0.00049748891
0.00052803934
0.00048513891
0.0003935403
0.0002966659
0.00022229093
0.00017571669
0.00014370547
0.0001061426
0.00014918042
0.00030269268
0.00043562652
0.00053672425
0.00061497336
0.0006870218
0.00073963947
0.00071823238
0.00059715588
0.00031881289
0.00011043018
0.00059996375
0.00017085338
0.0001500857
0.00017814695
0.00019811629
0.00021314875
0.00022403802
0.00023397205
0.00023691136
0.00022051209
0.00018139109
0.00013278357
0.00011074122
9.4266712e-05
7.75065e-05
6.8282888e-05
0.00013329212
0.0002642402
0.00036247037
0.00042119714
0.00046152266
0.00050860817
0.00055840407
0.00056582438
0.00048652767
0.00028918879