/*--------------------------------*- C++ -*----------------------------------*\
| =========                 |                                                 |
| \\      /  F ield         | OpenFOAM: The Open Source CFD Toolbox           |
|  \\    /   O peration     | Version:  2406                                  |
|   \\  /    A nd           | Website:  www.openfoam.com                      |
|    \\/     M anipulation  |                                                 |
\*---------------------------------------------------------------------------*/
FoamFile
{
    version     2.0;
    format      ascii;
    arch        "LSB;label=32;scalar=64";
    class       volScalarField;
    location    "350";
    object      nut;
}
// * * * * * * * * * * * * * * * * * * * * * * * * * * * * * * * * * * * * * //

dimensions      [0 2 -1 0 0 0 0];

internalField   nonuniform List<scalar> 
150387
(
5.6435533e-06
3.1314466e-06
2.8741543e-06
2.8673787e-06
3.1696827e-06
3.1375975e-06
4.1222518e-06
2.9270753e-06
2.2944999e-06
4.0528685e-06
3.8782613e-06
3.9437378e-06
3.8920955e-06
3.7230516e-06
3.3274554e-06
2.9101445e-06
3.0887971e-06
6.8140666e-06
1.3453096e-05
1.9293027e-05
7.0346581e-06
4.948846e-06
9.4307652e-06
1.2417289e-05
1.3525429e-05
1.3239141e-05
1.177708e-05
9.5505905e-06
6.8814445e-06
4.5536024e-06
3.694163e-06
9.9688903e-06
1.5868633e-05
2.1560348e-05
1.9503305e-05
1.5076119e-05
3.4462742e-06
2.1535767e-06
1.3177698e-05
1.9641142e-05
2.2866802e-05
2.3258062e-05
2.1745978e-05
1.9101652e-05
1.6194933e-05
1.3186994e-05
1.0041116e-05
6.9418439e-06
4.2938026e-06
1.1194433e-05
1.776288e-05
2.2953795e-05
2.4415816e-05
2.7754468e-05
2.6124301e-05
6.9951465e-06
1.8884632e-06
1.6196537e-05
2.7703431e-05
3.4796325e-05
3.578491e-05
3.2883419e-05
2.823927e-05
2.3309935e-05
1.8562925e-05
1.4117658e-05
1.0263918e-05
7.2324575e-06
4.5455952e-06
1.1217074e-05
1.8529567e-05
2.2538688e-05
2.497172e-05
3.3283246e-05
3.239319e-05
2.0738295e-05
9.1202371e-06
1.9429575e-05
3.3620642e-05
4.1849589e-05
4.324983e-05
4.0748521e-05
3.6292988e-05
3.1012192e-05
2.53794e-05
2.0015546e-05
1.5062143e-05
1.0604419e-05
7.0557557e-06
4.3797098e-06
9.7318675e-06
1.6987801e-05
1.8531652e-05
2.3637848e-05
3.3876168e-05
3.5937377e-05
2.9867508e-05
1.7002301e-05
3.7619144e-06
1.2570968e-05
3.3189213e-05
4.4188976e-05
4.7344244e-05
4.5256542e-05
4.022283e-05
3.3944629e-05
2.7990855e-05
2.281277e-05
1.8221159e-05
1.4064955e-05
1.0157593e-05
6.7486101e-06
4.0657006e-06
8.5283188e-06
1.3685647e-05
1.4208323e-05
2.1891989e-05
3.1692611e-05
3.4806603e-05
3.3431866e-05
2.177275e-05
8.3053577e-06
2.3624071e-06
2.4412579e-06
2.6293778e-05
3.5809722e-05
4.2523281e-05
4.3883934e-05
3.9947269e-05
3.3911081e-05
2.8061155e-05
2.2964919e-05
1.8656945e-05
1.4942753e-05
1.1655992e-05
8.63563e-06
6.0204041e-06
3.7303154e-06
7.7344495e-06
9.7354844e-06
1.218637e-05
1.9642391e-05
2.7675736e-05
3.1352504e-05
3.2050373e-05
2.3116778e-05
1.2928453e-05
3.7886768e-06
1.7188021e-05
3.1476363e-05
3.811688e-05
3.7885116e-05
3.353868e-05
2.9102861e-05
2.4608944e-05
2.0339529e-05
1.6655449e-05
1.3629947e-05
1.103118e-05
8.7133955e-06
6.698683e-06
5.0283632e-06
3.4063255e-06
6.3386803e-06
6.7326704e-06
1.061615e-05
1.6901115e-05
2.3046095e-05
2.7038256e-05
2.7797786e-05
2.1638214e-05
1.4615349e-05
4.7440665e-06
3.6718312e-06
2.0707765e-05
3.1571787e-05
3.6865564e-05
3.6403799e-05
3.0682744e-05
2.3620812e-05
1.7791049e-05
1.3679845e-05
1.0830933e-05
8.7744914e-06
7.1190199e-06
5.8324771e-06
4.8510153e-06
4.0501718e-06
3.0675457e-06
4.7658636e-06
5.3759179e-06
9.2172511e-06
1.4175388e-05
1.8758089e-05
2.2201449e-05
2.2670107e-05
1.8255413e-05
1.4325555e-05
5.4565537e-06
2.9384095e-06
8.5804809e-06
2.9063027e-05
2.7121125e-05
2.5694778e-05
2.6064288e-05
2.5143943e-05
2.1527811e-05
1.6123672e-05
1.1196408e-05
7.7838671e-06
5.7127832e-06
4.5929842e-06
3.9248854e-06
3.5040741e-06
3.2287399e-06
2.8098577e-06
3.5786017e-06
4.7463961e-06
7.7477897e-06
1.1501018e-05
1.4849067e-05
1.7356606e-05
1.7513007e-05
1.4557669e-05
1.2966061e-05
5.5838911e-06
2.5525885e-06
1.0438747e-05
2.4913389e-05
2.6314953e-05
2.3054629e-05
1.7381394e-05
1.4989283e-05
1.412669e-05
1.2397281e-05
9.5373648e-06
6.8321028e-06
4.9495615e-06
3.819033e-06
3.2463e-06
2.9281583e-06
2.5976777e-06
2.4381939e-06
3.0215891e-06
4.2417147e-06
6.3748994e-06
8.9053279e-06
1.1183385e-05
1.2739641e-05
1.2470133e-05
1.1361432e-05
1.1023802e-05
5.084057e-06
2.4421561e-06
3.0918161e-06
9.3935836e-06
1.5303964e-05
1.6917768e-05
1.5320412e-05
1.1990417e-05
8.9178642e-06
7.0674245e-06
6.404944e-06
5.7535711e-06
4.7724437e-06
3.8712977e-06
2.8548973e-06
3.158636e-06
2.0625974e-06
1.6814968e-06
2.29612e-06
2.6996886e-06
3.7819507e-06
5.1390004e-06
6.593186e-06
7.8858166e-06
8.5923033e-06
8.3933924e-06
8.6036733e-06
8.7805466e-06
4.3660641e-06
2.2894317e-06
2.5398292e-06
2.8376233e-06
3.7464921e-06
4.4608514e-06
4.928753e-06
4.772045e-06
4.5566068e-06
4.3495512e-06
4.0371863e-06
3.6761977e-06
3.3427898e-06
3.0290736e-06
2.9008212e-06
2.0289988e-06
1.0772669e-06
1.5781705e-06
2.3268949e-06
2.7151464e-06
3.3712142e-06
4.0634942e-06
4.6975895e-06
5.180629e-06
5.4359529e-06
5.6714283e-06
6.3457052e-06
6.3811827e-06
3.618955e-06
2.185875e-06
2.0534869e-06
2.7083333e-06
2.890757e-06
5.1616803e-06
7.9101222e-06
8.4465365e-06
8.8809548e-06
8.6978422e-06
7.7016964e-06
6.3426035e-06
5.0301024e-06
3.8738759e-06
2.9776103e-06
2.0987322e-06
1.6908681e-06
1.770334e-06
2.3498836e-06
2.4495532e-06
2.6600205e-06
2.9597831e-06
3.2592721e-06
3.6670948e-06
3.8887383e-06
4.1150584e-06
4.2188241e-06
3.8551199e-06
3.04567e-06
2.2249169e-06
1.8484157e-06
2.8535593e-06
3.2076348e-06
8.7598191e-06
1.2613529e-05
1.3897222e-05
1.5007918e-05
1.4056066e-05
1.1836361e-05
9.2201531e-06
6.6296331e-06
4.5396842e-06
3.3460591e-06
2.618508e-06
2.6636765e-06
2.414716e-06
2.4705929e-06
2.9011471e-06
3.2029704e-06
4.1158895e-06
5.5800513e-06
7.0754791e-06
8.3449048e-06
1.0652844e-05
1.3189031e-05
1.3050586e-05
9.8891745e-06
6.1962813e-06
3.2913003e-06
2.4692256e-06
3.4400448e-06
1.137106e-05
1.654221e-05
1.9728499e-05
2.145198e-05
1.9584559e-05
1.6256569e-05
1.2440686e-05
8.5684683e-06
5.4533255e-06
3.9229241e-06
3.3789082e-06
2.9876049e-06
3.0828345e-06
3.2427243e-06
3.6589804e-06
4.0604102e-06
4.5891088e-06
6.2568486e-06
1.0095323e-05
1.423959e-05
1.6814311e-05
1.8549899e-05
1.9377219e-05
1.9044882e-05
1.5071005e-05
2.9820537e-06
3.8680687e-06
3.5846277e-06
1.266097e-05
1.994547e-05
2.5368536e-05
2.8008434e-05
2.550267e-05
2.1233119e-05
1.5992495e-05
1.0836299e-05
6.7657088e-06
5.132954e-06
4.4528699e-06
3.3071316e-06
2.991131e-06
4.1764468e-06
5.1770298e-06
6.2800863e-06
7.3225979e-06
8.2631594e-06
1.0723302e-05
1.5972643e-05
2.177968e-05
2.3888769e-05
2.1520347e-05
1.8545161e-05
1.5090059e-05
3.7090324e-06
1.2437222e-05
2.2526491e-05
3.0874489e-05
3.4230614e-05
3.1994065e-05
2.6864436e-05
2.0052304e-05
1.3489359e-05
8.9337373e-06
7.6425624e-06
6.1930274e-06
4.2100037e-06
3.2056032e-06
5.1720058e-06
7.1787463e-06
9.5377138e-06
1.2010446e-05
1.4188539e-05
1.568522e-05
1.7590823e-05
2.2613953e-05
2.6447414e-05
2.6580923e-05
2.365161e-05
1.6253973e-05
4.0834177e-06
1.0565704e-05
2.3415323e-05
3.5466722e-05
3.9916525e-05
3.9039681e-05
3.323809e-05
2.4795426e-05
1.6816602e-05
1.2944842e-05
1.1637689e-05
8.337009e-06
5.0038365e-06
3.4795245e-06
6.1817335e-06
9.3052274e-06
1.308314e-05
1.7050803e-05
2.1068043e-05
2.4847623e-05
2.7245329e-05
2.7797722e-05
2.7116552e-05
2.4744204e-05
1.5202527e-05
7.0560669e-06
6.7573393e-06
2.1800898e-05
3.7053224e-05
4.4187675e-05
4.5284476e-05
4.0035371e-05
2.9753417e-05
2.1075618e-05
1.9010406e-05
1.6307571e-05
1.0014134e-05
5.6990208e-06
3.7413243e-06
7.0562955e-06
1.1286361e-05
1.6182297e-05
2.1588477e-05
2.7340419e-05
3.2631645e-05
3.6004629e-05
3.6835319e-05
3.3253616e-05
2.3058661e-05
9.9910389e-06
3.9340514e-06
1.6788466e-05
3.330655e-05
4.572627e-05
4.9571019e-05
4.546169e-05
3.4544607e-05
2.8276781e-05
2.5986651e-05
1.9270692e-05
1.1107292e-05
7.0234333e-06
3.9519404e-06
7.3784832e-06
1.2571012e-05
1.8524927e-05
2.4552476e-05
3.0002491e-05
3.4911471e-05
3.8269578e-05
3.7188391e-05
3.070416e-05
1.9485228e-05
1.6753231e-06
8.708407e-06
2.3302463e-05
4.1182555e-05
4.9024297e-05
4.696402e-05
3.8753139e-05
3.6387229e-05
3.061367e-05
2.0014404e-05
1.3763365e-05
9.550569e-06
4.1171404e-06
6.9462639e-06
1.2010189e-05
1.8226026e-05
2.4202166e-05
2.9743824e-05
3.3616076e-05
3.312143e-05
2.702788e-05
1.483807e-05
3.3583892e-06
1.1032689e-05
2.8869118e-05
4.195976e-05
4.2103842e-05
4.0940799e-05
4.1594446e-05
3.0773042e-05
2.1605221e-05
1.8632272e-05
1.2549877e-05
4.2919689e-06
6.8879139e-06
1.0444278e-05
1.4240288e-05
1.8409514e-05
2.1386934e-05
2.2129681e-05
1.9374174e-05
1.3450475e-05
4.713799e-06
1.1025418e-05
2.5397303e-05
3.1820359e-05
3.8181748e-05
3.9283338e-05
2.7691308e-05
2.6430902e-05
2.1229842e-05
1.4482318e-05
4.0253264e-06
7.2442745e-06
9.9021404e-06
1.1713232e-05
1.2640255e-05
1.2328655e-05
9.7449734e-06
5.0285624e-06
2.6323886e-06
2.7559256e-06
1.9403049e-05
2.65533e-05
2.9569319e-05
2.6508546e-05
2.8518286e-05
1.9950818e-05
1.3854427e-05
2.9416919e-06
3.5261887e-06
4.262249e-06
4.4766077e-06
4.0438366e-06
3.409732e-06
2.2999428e-06
2.1813894e-06
6.3902144e-06
1.475052e-05
2.7307955e-05
2.4006695e-05
1.5593611e-05
1.0038898e-05
2.2793638e-06
2.1052217e-06
2.2038534e-06
2.4863238e-06
2.250695e-06
3.4965857e-06
4.5058179e-06
5.6364448e-06
5.3487911e-06
3.6859507e-06
2.0958131e-06
2.6467652e-06
3.4544757e-06
7.5716834e-06
8.9299883e-06
7.0443229e-06
6.3058455e-06
6.0006858e-06
5.3185963e-06
6.204431e-06
7.7546898e-06
8.6295211e-06
1.6758843e-05
1.9344972e-05
2.0875905e-05
2.1428096e-05
2.0448481e-05
1.8084845e-05
1.5289876e-05
1.1397233e-05
7.650921e-06
9.1685039e-06
2.1130397e-05
1.2680804e-05
7.5872246e-06
5.1717297e-06
2.0817347e-05
2.9333178e-05
3.4959099e-05
3.7421504e-05
3.7065774e-05
3.5045162e-05
3.201291e-05
2.8353675e-05
2.4877221e-05
1.8086158e-05
1.0546779e-05
1.4020153e-05
2.3251612e-05
3.7208884e-05
2.7613577e-05
1.9401907e-05
8.1810482e-06
3.0427936e-05
4.3259897e-05
5.0358249e-05
5.2033336e-05
5.0375737e-05
4.702062e-05
4.2973534e-05
3.8755614e-05
3.4503757e-05
3.0767934e-05
2.1365305e-05
1.4612574e-05
1.7109526e-05
2.9252939e-05
4.4149682e-05
4.9322065e-05
3.7599176e-05
1.4337418e-05
1.0057251e-05
4.2507711e-05
6.2944016e-05
7.3655413e-05
7.5129091e-05
7.0807722e-05
6.3843071e-05
5.6410086e-05
4.9448216e-05
4.3264509e-05
3.7776326e-05
3.3117913e-05
2.1482199e-05
1.7779504e-05
2.3633508e-05
3.6539415e-05
4.9906761e-05
6.3218055e-05
5.6704501e-05
3.5289701e-05
1.1904483e-05
9.0931944e-06
4.8579023e-05
7.4488395e-05
8.9221897e-05
9.307117e-05
8.9709951e-05
8.2297012e-05
7.2904353e-05
6.3180303e-05
5.4315702e-05
4.6605983e-05
3.9720842e-05
3.3111503e-05
1.9546993e-05
1.9628648e-05
3.0882656e-05
4.325051e-05
5.5350868e-05
7.0002181e-05
6.805165e-05
5.1796084e-05
2.5881761e-05
7.6931685e-06
3.8132492e-05
7.2697796e-05
9.3573e-05
0.000101371
0.00010040655
9.4200141e-05
8.529755e-05
7.5427633e-05
6.5520377e-05
5.6298716e-05
4.7828136e-05
3.9879869e-05
3.1259683e-05
1.7054177e-05
2.066086e-05
3.5124188e-05
4.6357731e-05
5.908844e-05
7.1803536e-05
7.1729874e-05
6.0091587e-05
3.6203267e-05
1.7947796e-05
5.4054296e-06
2.177254e-05
6.2197738e-05
8.0391563e-05
9.0182504e-05
9.4121791e-05
9.2954319e-05
8.761461e-05
7.9671565e-05
7.0710116e-05
6.1709672e-05
5.3137808e-05
4.4932082e-05
3.6892197e-05
2.7300857e-05
1.4399148e-05
1.966454e-05
3.3435605e-05
4.6152166e-05
5.9710339e-05
6.9638185e-05
6.971545e-05
6.0536151e-05
4.1301716e-05
2.4999578e-05
8.8031747e-06
4.2821476e-05
6.1669536e-05
7.405655e-05
8.1291739e-05
8.3917534e-05
8.1949653e-05
7.6051546e-05
6.7851621e-05
5.9092846e-05
5.0848898e-05
4.3389202e-05
3.6452793e-05
2.9627328e-05
2.1303534e-05
1.1570597e-05
1.6502041e-05
2.9045449e-05
4.37754e-05
5.7057265e-05
6.4296619e-05
6.3749485e-05
5.593342e-05
4.1833395e-05
2.9458808e-05
1.4092647e-05
5.8679921e-06
9.7267651e-06
3.7164539e-05
4.8614656e-05
5.7936262e-05
6.5491112e-05
7.0358294e-05
7.0141115e-05
6.4212482e-05
5.460991e-05
4.4130381e-05
3.5036024e-05
2.8047621e-05
2.284576e-05
1.8775919e-05
1.4044834e-05
8.6596898e-06
1.2742392e-05
2.4615986e-05
4.0040699e-05
5.1890716e-05
5.6837374e-05
5.5522908e-05
4.921871e-05
3.9823407e-05
3.0986475e-05
1.6252777e-05
9.8537908e-06
2.2246303e-05
3.2386034e-05
3.5341952e-05
4.0846502e-05
4.6462291e-05
5.0768535e-05
5.2226558e-05
4.937965e-05
4.2081898e-05
3.1904467e-05
2.2110524e-05
1.5004187e-05
1.0975931e-05
9.0783854e-06
7.7560257e-06
6.2773268e-06
9.7968695e-06
2.105217e-05
3.5410382e-05
4.5180949e-05
4.844076e-05
4.6838607e-05
4.2380935e-05
3.6708271e-05
3.0243416e-05
1.7421777e-05
9.0515121e-06
9.8612392e-06
1.6134255e-05
2.2197164e-05
2.7621837e-05
2.9746801e-05
2.9569811e-05
2.8670004e-05
2.6448238e-05
2.2449176e-05
1.7331277e-05
1.2055775e-05
8.1073766e-06
6.4385596e-06
5.3689224e-06
4.5922804e-06
4.8976648e-06
8.127998e-06
1.8140632e-05
3.0132054e-05
3.7683216e-05
4.000642e-05
3.8817836e-05
3.6326444e-05
3.332761e-05
2.8332908e-05
1.7824849e-05
8.732171e-06
2.7384154e-06
5.4405202e-06
9.3237764e-06
1.5706294e-05
1.9413815e-05
1.9050435e-05
1.6631402e-05
1.386205e-05
1.1481206e-05
9.4869829e-06
7.8487659e-06
6.4723465e-06
5.3544676e-06
5.2937682e-06
6.2592802e-06
2.7220024e-06
4.444327e-06
7.513202e-06
1.5501522e-05
2.4333479e-05
3.0061233e-05
3.2314853e-05
3.235338e-05
3.1666832e-05
3.0188116e-05
2.5820557e-05
1.6884144e-05
7.3918831e-06
5.1798345e-06
5.7567109e-06
1.4354841e-05
2.4578785e-05
2.8924282e-05
2.9512771e-05
2.8443752e-05
2.6510647e-05
2.3661084e-05
1.9638876e-05
1.4548741e-05
9.2354099e-06
5.2959469e-06
3.1542693e-06
1.3589099e-06
1.9717242e-06
4.2205242e-06
6.8069111e-06
1.1656307e-05
1.6814568e-05
2.0657878e-05
2.3462572e-05
2.5841181e-05
2.7941729e-05
2.8191025e-05
2.422671e-05
1.5532501e-05
5.625907e-06
5.1177917e-06
6.3759733e-06
1.979974e-05
3.2088804e-05
3.8446595e-05
4.1731232e-05
4.3632041e-05
4.3508887e-05
4.0359937e-05
3.3624288e-05
2.3548731e-05
1.2572333e-05
5.8712808e-06
4.1733076e-06
3.2155424e-06
3.2176277e-06
4.1482461e-06
5.2182326e-06
6.7160226e-06
8.4591309e-06
1.0239665e-05
1.2183868e-05
1.4573159e-05
1.7222554e-05
1.9115798e-05
1.7641283e-05
1.1043571e-05
5.5618185e-06
4.4247385e-06
7.4978487e-06
2.0643288e-05
3.4711703e-05
4.2664396e-05
4.8534902e-05
5.2813985e-05
5.4314649e-05
5.1633874e-05
4.3744611e-05
3.0850772e-05
1.6553296e-05
7.8812499e-06
5.3473427e-06
5.4160343e-06
5.0254232e-06
5.2844737e-06
6.2767477e-06
8.4979151e-06
1.2328072e-05
1.6862462e-05
2.0094405e-05
2.0799843e-05
1.989129e-05
1.7030722e-05
1.1137081e-05
6.781174e-06
4.2213997e-06
3.1175577e-06
8.992363e-06
2.0517422e-05
3.7319022e-05
4.7340275e-05
5.6488657e-05
6.3000047e-05
6.5434008e-05
6.2468337e-05
5.3361891e-05
3.8761593e-05
2.3152684e-05
1.3132801e-05
7.0064691e-06
5.7097958e-06
8.7886578e-06
1.1560565e-05
1.4019281e-05
1.7567481e-05
2.3130599e-05
3.0334095e-05
3.5389604e-05
3.4099507e-05
2.7329716e-05
1.9163889e-05
1.262632e-05
9.5434164e-06
7.3953874e-06
6.2786315e-06
1.9226286e-05
3.7964009e-05
5.1071141e-05
6.456042e-05
7.3870299e-05
7.6935625e-05
7.3260121e-05
6.3048003e-05
4.8070113e-05
3.3257678e-05
2.2324685e-05
1.0920189e-05
6.4533697e-06
1.3140844e-05
2.0750643e-05
2.6448041e-05
3.1643398e-05
3.6713018e-05
4.1866826e-05
4.6099253e-05
4.5948451e-05
3.9034576e-05
2.9585012e-05
2.1931104e-05
1.7836661e-05
1.89621e-05
1.6574198e-05
3.5471602e-05
5.2837761e-05
7.20394e-05
8.4294049e-05
8.8209647e-05
8.3817969e-05
7.2951907e-05
5.9009538e-05
4.6166429e-05
3.2971604e-05
1.5676271e-05
7.3867043e-06
1.6701592e-05
2.8631455e-05
3.7382546e-05
4.5101007e-05
5.1183218e-05
5.5283821e-05
5.7083217e-05
5.6150596e-05
5.1692213e-05
4.3807616e-05
3.442521e-05
2.5764236e-05
2.1904849e-05
1.2624563e-05
2.9510547e-05
5.1006146e-05
7.6637311e-05
9.2495946e-05
9.8297517e-05
9.3323727e-05
8.2474375e-05
7.0380446e-05
5.7955382e-05
4.0990796e-05
1.9826443e-05
8.8203755e-06
1.9159006e-05
3.3425818e-05
4.3671269e-05
5.3481083e-05
6.1667161e-05
6.7265268e-05
6.9226926e-05
6.7229516e-05
6.1965237e-05
5.4068881e-05
4.2721897e-05
2.7584963e-05
7.8975002e-06
3.8975888e-06
2.0598657e-05
4.3502788e-05
7.5075046e-05
9.6300633e-05
0.00010537581
0.0001002225
9.0151764e-05
7.9443311e-05
6.4530802e-05
4.4409865e-05
2.272993e-05
1.1140406e-05
2.1044246e-05
3.5270381e-05
4.5328768e-05
5.6116839e-05
6.600977e-05
7.3849154e-05
7.8107813e-05
7.7269374e-05
6.9763897e-05
5.3341812e-05
2.8133112e-05
1.2706759e-05
9.9352706e-06
3.0182155e-05
6.3883825e-05
9.2298095e-05
0.00010676548
0.00010254199
9.4113334e-05
8.2793911e-05
6.4006338e-05
4.3775869e-05
2.448676e-05
1.4259125e-05
2.30971e-05
3.4955327e-05
4.3350325e-05
5.353412e-05
6.3320932e-05
7.0837363e-05
7.4157403e-05
7.0842697e-05
5.8711806e-05
3.8032252e-05
2.6426983e-05
9.6308567e-06
4.2625001e-05
7.6602205e-05
9.8409656e-05
9.8496339e-05
9.2787113e-05
7.9136883e-05
5.8130898e-05
4.0502108e-05
2.4579722e-05
1.7352063e-05
2.5512609e-05
3.3750939e-05
3.9387669e-05
4.667739e-05
5.3874465e-05
5.9148974e-05
5.9278676e-05
5.1252967e-05
3.4504856e-05
2.334123e-05
8.180595e-06
1.3298647e-05
4.9157081e-05
7.5793423e-05
8.6765807e-05
8.5099004e-05
7.0024019e-05
5.0849211e-05
3.5401728e-05
2.0965076e-05
1.8215375e-05
2.703215e-05
3.1888004e-05
3.4652592e-05
3.7769973e-05
3.9719638e-05
3.9276224e-05
3.4423062e-05
2.4465086e-05
1.7562564e-05
7.2349854e-06
1.3809988e-05
3.8697863e-05
6.5255469e-05
6.9869315e-05
5.7940664e-05
4.4867086e-05
2.9760548e-05
1.5316298e-05
1.6168411e-05
2.4513443e-05
2.7203394e-05
2.8868848e-05
2.9716426e-05
2.8158463e-05
2.355323e-05
1.6479342e-05
8.8914579e-06
5.3538397e-06
1.1138311e-05
3.2926566e-05
4.5988509e-05
4.2568687e-05
4.0213004e-05
2.7472098e-05
1.0866794e-05
9.0209291e-06
1.526425e-05
1.7008624e-05
1.6566825e-05
1.5513664e-05
1.3376201e-05
9.9389897e-06
7.0590444e-06
1.9833778e-05
1.7401975e-05
3.3219182e-05
3.0483495e-05
1.5187619e-05
4.4188178e-06
4.3233365e-06
6.6618151e-06
8.1348993e-06
8.6311787e-06
7.3465498e-06
2.8406772e-06
5.9516648e-06
1.1281597e-05
5.4274032e-06
4.3589606e-06
3.9562117e-06
3.649731e-06
7.5731734e-06
1.0339883e-05
9.1643053e-06
7.6689121e-06
5.9750343e-06
5.4551307e-06
5.7482953e-06
1.0592648e-05
1.0598814e-05
2.294377e-05
2.7131843e-05
2.8783812e-05
2.9069335e-05
2.7046237e-05
2.3169908e-05
1.8564382e-05
1.5410356e-05
8.2923009e-06
1.3238174e-05
2.7814267e-05
1.7532942e-05
1.0049723e-05
6.130235e-06
2.9194234e-05
4.2246517e-05
4.9210099e-05
5.1107315e-05
4.9265415e-05
4.5542304e-05
4.0826661e-05
3.5428448e-05
2.961712e-05
2.4419499e-05
1.3917691e-05
2.0134676e-05
2.7928469e-05
4.9404746e-05
3.6886904e-05
2.3012467e-05
9.7670841e-06
4.2091197e-05
6.0499744e-05
7.0097539e-05
7.1697258e-05
6.8390505e-05
6.2605922e-05
5.5931384e-05
4.924576e-05
4.2777419e-05
3.6642941e-05
3.0421571e-05
2.0730067e-05
1.9329376e-05
3.0236751e-05
5.3834732e-05
6.6086929e-05
5.0383925e-05
1.822546e-05
1.1879753e-05
5.7156555e-05
8.5702201e-05
0.00010009867
0.00010147546
9.4736737e-05
8.4420415e-05
7.3499867e-05
6.3251798e-05
5.4338694e-05
4.6686888e-05
4.0509968e-05
3.330529e-05
2.2369862e-05
1.8209202e-05
3.076986e-05
5.6601382e-05
8.131247e-05
7.6853637e-05
4.802756e-05
1.5131915e-05
1.0932965e-05
6.442505e-05
0.00010021639
0.00011999416
0.0001246417
0.00011927263
0.00010830857
9.4706529e-05
8.0966475e-05
6.8596254e-05
5.815298e-05
4.9522329e-05
4.2927688e-05
3.2874032e-05
2.2072718e-05
2.2766986e-05
3.824138e-05
6.1978867e-05
8.8138789e-05
9.1815601e-05
7.1226406e-05
3.6395361e-05
9.5773526e-06
5.1212184e-05
9.7914487e-05
0.00012359905
0.0001324317
0.00013101639
0.00012301679
0.00011119011
9.7763365e-05
8.4334042e-05
7.2000313e-05
6.1192331e-05
5.1926417e-05
4.4125358e-05
3.0478321e-05
2.2191724e-05
3.0536327e-05
4.8192986e-05
6.8926331e-05
9.1028355e-05
9.6473736e-05
8.2822794e-05
5.1571206e-05
2.5455231e-05
6.6253477e-06
2.7594166e-05
8.5223817e-05
0.00010513349
0.00011440487
0.00011867341
0.00011861525
0.00011358529
0.00010460347
9.3636508e-05
8.2288059e-05
7.1456552e-05
6.1377322e-05
5.2067601e-05
4.2777534e-05
2.6937035e-05
2.1928332e-05
3.5832679e-05
5.5124143e-05
7.3815343e-05
8.9764576e-05
9.3592408e-05
8.337017e-05
5.8855007e-05
3.6496752e-05
1.3110415e-05
5.7624474e-05
7.6989862e-05
8.6037677e-05
9.2482103e-05
9.8240225e-05
0.0001013484
9.9227891e-05
9.2271576e-05
8.2843629e-05
7.3055186e-05
6.3872142e-05
5.5262049e-05
4.690854e-05
3.7384597e-05
2.2186936e-05
2.0515216e-05
3.7569031e-05
5.7657606e-05
7.3837321e-05
8.3955459e-05
8.5217243e-05
7.6844253e-05
5.9258283e-05
4.189994e-05
1.9564261e-05
6.6165302e-06
1.0690316e-05
4.8058054e-05
5.2974516e-05
5.7235642e-05
6.2184944e-05
7.1230231e-05
7.9374643e-05
8.165184e-05
7.6854617e-05
6.7384622e-05
5.6821956e-05
4.760519e-05
4.0265623e-05
3.4250485e-05
2.7382071e-05
1.6442512e-05
1.794689e-05
3.6567123e-05
5.6241397e-05
6.9118424e-05
7.4526242e-05
7.3654206e-05
6.7211465e-05
5.5659655e-05
4.286733e-05
2.2965453e-05
1.1054344e-05
2.379557e-05
3.1204822e-05
2.5372664e-05
2.8495614e-05
3.4399282e-05
4.270327e-05
5.0849449e-05
5.588007e-05
5.5286952e-05
4.8693902e-05
3.8649045e-05
2.8748837e-05
2.1566185e-05
1.7713061e-05
1.5130959e-05
1.0834162e-05
1.5333837e-05
3.4304018e-05
5.1994782e-05
6.1325802e-05
6.338125e-05
6.1400165e-05
5.7112797e-05
5.0264373e-05
4.0793307e-05
2.4192597e-05
1.1333838e-05
1.2731973e-05
1.3281909e-05
1.8700519e-05
2.1062597e-05
2.4095774e-05
2.5334896e-05
2.6362607e-05
2.6910989e-05
2.5944052e-05
2.2918078e-05
1.8079086e-05
1.2805916e-05
1.0290501e-05
8.7292971e-06
7.702759e-06
7.1432618e-06
1.3740256e-05
3.1351648e-05
4.5940947e-05
5.2171206e-05
5.2375133e-05
5.034029e-05
4.8025923e-05
4.4521681e-05
3.7487936e-05
2.4383833e-05
1.1593022e-05
2.6404975e-06
4.758574e-06
1.4056088e-05
2.4623672e-05
2.9495337e-05
2.9058657e-05
2.6050076e-05
2.2725108e-05
1.9700643e-05
1.6785379e-05
1.3848727e-05
1.0507653e-05
7.2741655e-06
8.5810053e-06
1.5095655e-05
5.1367882e-06
6.049302e-06
1.3537348e-05
2.7962241e-05
3.894152e-05
4.317935e-05
4.2983108e-05
4.1628102e-05
4.0801887e-05
3.9160709e-05
3.3641151e-05
2.2649871e-05
1.0744478e-05
5.0187478e-06
7.832626e-06
2.2452411e-05
3.4882242e-05
4.1210746e-05
4.3663691e-05
4.4472432e-05
4.3586591e-05
4.100376e-05
3.6359241e-05
2.8858149e-05
1.8543258e-05
9.5301278e-06
4.9794425e-06
1.9013791e-06
2.8255702e-06
6.3150203e-06
1.2757011e-05
2.2511858e-05
3.0035542e-05
3.388063e-05
3.5451438e-05
3.5826433e-05
3.5726996e-05
3.4442735e-05
2.9285514e-05
1.9164655e-05
7.0629362e-06
5.0047236e-06
6.880636e-06
2.6520784e-05
4.0793694e-05
4.9147681e-05
5.3314773e-05
5.5898548e-05
5.7576237e-05
5.7078401e-05
5.2250011e-05
4.1322021e-05
2.5083506e-05
1.0726256e-05
7.447841e-06
6.5759479e-06
4.4020319e-06
6.090901e-06
8.9100802e-06
1.2539515e-05
1.5748883e-05
1.830506e-05
2.0938442e-05
2.4743016e-05
2.8670265e-05
2.9563591e-05
2.5353465e-05
1.5890847e-05
7.0899662e-06
4.6070478e-06
9.2381365e-06
2.8879639e-05
4.6049808e-05
5.6533474e-05
6.3126496e-05
6.7463118e-05
7.00259e-05
6.9583942e-05
6.3849382e-05
5.0808768e-05
3.1869686e-05
1.4964995e-05
7.6618768e-06
8.1464695e-06
8.6037871e-06
8.9856035e-06
1.0469149e-05
1.311385e-05
1.6553255e-05
1.917823e-05
2.0124867e-05
2.0395542e-05
2.1256003e-05
2.2146733e-05
1.7948955e-05
9.5690016e-06
5.7590614e-06
3.4155268e-06
8.7810582e-06
2.8880215e-05
5.0411741e-05
6.3958163e-05
7.4376339e-05
8.1239268e-05
8.4296472e-05
8.2815378e-05
7.5357545e-05
6.0946904e-05
4.1999977e-05
2.4379984e-05
1.047241e-05
9.4116418e-06
1.7082034e-05
2.1618815e-05
2.5055383e-05
2.9235966e-05
3.3787862e-05
3.636016e-05
3.3566701e-05
2.6056088e-05
1.8943392e-05
1.541841e-05
1.3985265e-05
9.6454454e-06
8.1582932e-06
6.2774609e-06
2.733025e-05
5.2601583e-05
7.0152574e-05
8.5893091e-05
9.6155672e-05
9.9510744e-05
9.6368919e-05
8.6993207e-05
7.2332662e-05
5.5034264e-05
3.6103405e-05
1.5051651e-05
1.1204375e-05
2.516318e-05
3.5403578e-05
4.2244311e-05
4.7946841e-05
5.2227046e-05
5.3964478e-05
5.042275e-05
4.0019271e-05
2.7916836e-05
2.404778e-05
2.322389e-05
2.161236e-05
2.3837146e-05
2.3099465e-05
5.0698148e-05
7.3506819e-05
9.6636464e-05
0.00011079516
0.00011469482
0.00010968513
9.8599869e-05
8.4234725e-05
6.7462363e-05
4.4835158e-05
1.9001278e-05
1.297692e-05
3.0171878e-05
4.3978578e-05
5.3962869e-05
6.2664984e-05
6.859397e-05
7.0716398e-05
6.8111499e-05
6.1053516e-05
5.2692221e-05
4.6187804e-05
4.0259764e-05
3.2586588e-05
2.4527138e-05
1.5640665e-05
4.3261412e-05
7.1574724e-05
0.00010354973
0.00012257663
0.00012825851
0.00012139945
0.00010880371
9.3772411e-05
7.3886633e-05
4.7083076e-05
2.095025e-05
1.4826311e-05
3.2872441e-05
4.7243703e-05
5.9160365e-05
7.116238e-05
8.0803083e-05
8.6311274e-05
8.6464124e-05
8.2025551e-05
7.5677395e-05
6.8110512e-05
5.6689466e-05
3.964838e-05
9.6738913e-06
4.9953263e-06
2.9466399e-05
6.1354094e-05
0.00010201574
0.00012848289
0.00013782824
0.00012937529
0.00011518148
9.6940437e-05
7.1187214e-05
4.3193073e-05
2.1513766e-05
1.7666502e-05
3.4855484e-05
4.7279107e-05
5.9829546e-05
7.3997763e-05
8.7054817e-05
9.6960527e-05
0.00010188539
0.00010062597
9.1838485e-05
7.1854666e-05
3.7978009e-05
1.7553383e-05
1.1673585e-05
4.2121012e-05
8.6992218e-05
0.00012370982
0.00014026762
0.00013158433
0.00011575753
9.20202e-05
6.1073592e-05
3.5883705e-05
2.1675244e-05
2.2495712e-05
3.6172707e-05
4.6289473e-05
5.7948996e-05
7.1847212e-05
8.5368697e-05
9.5760848e-05
0.00010023984
9.5889916e-05
7.9409472e-05
5.0718039e-05
3.3746103e-05
1.2211418e-05
5.733603e-05
0.00010281551
0.00013088798
0.00012714767
0.00011104812
8.285952e-05
4.9145987e-05
2.8335431e-05
2.1283041e-05
2.7883724e-05
3.7290876e-05
4.5326244e-05
5.442519e-05
6.489474e-05
7.5004866e-05
8.2225009e-05
8.2267655e-05
7.078683e-05
4.7066245e-05
3.1027612e-05
1.0083203e-05
1.5968939e-05
6.5170119e-05
0.00010254471
0.00011508253
0.00010271952
7.5678714e-05
4.1987329e-05
2.3205687e-05
2.0564861e-05
2.9808594e-05
3.7264521e-05
4.3003284e-05
4.8748154e-05
5.4080436e-05
5.7526985e-05
5.7013859e-05
4.9774561e-05
3.4819043e-05
2.4232306e-05
8.7023801e-06
1.6935575e-05
5.2307717e-05
9.0396134e-05
8.8794838e-05
6.9345852e-05
4.1268343e-05
2.3643387e-05
1.8150521e-05
2.6429432e-05
3.2444915e-05
3.6355593e-05
3.9862699e-05
4.2022011e-05
4.1100952e-05
3.5660381e-05
2.4418265e-05
1.2642467e-05
6.6099669e-06
1.3686811e-05
4.5333636e-05
6.229393e-05
5.7450903e-05
4.5952949e-05
2.7554739e-05
1.3036908e-05
1.6249987e-05
2.1334434e-05
2.3526394e-05
2.3461901e-05
2.2187987e-05
1.8881822e-05
1.5202101e-05
8.4145765e-06
2.3598812e-05
2.3854255e-05
4.3725247e-05
4.2949855e-05
1.6777541e-05
5.0421797e-06
7.4963189e-06
1.0895991e-05
1.1344833e-05
1.1261127e-05
8.1748167e-06
3.4219129e-06
7.213014e-06
1.2759658e-05
7.200344e-06
4.4875365e-06
4.238503e-06
4.0580638e-06
8.1828828e-06
1.1283608e-05
1.0382398e-05
8.52477e-06
6.7366143e-06
5.3020792e-06
6.3422078e-06
1.3632199e-05
1.2528068e-05
2.997397e-05
3.5642061e-05
3.7691203e-05
3.7583394e-05
3.4065563e-05
2.8246011e-05
2.1748917e-05
1.6211174e-05
9.4381084e-06
2.009598e-05
3.6724532e-05
2.2866733e-05
1.1469894e-05
7.2543238e-06
3.8285943e-05
5.6093953e-05
6.4743205e-05
6.6277918e-05
6.3070739e-05
5.7695767e-05
5.1125411e-05
4.3714747e-05
3.5784971e-05
2.7780455e-05
1.5463028e-05
2.599393e-05
3.7570723e-05
6.4422243e-05
4.6537974e-05
2.661587e-05
1.147391e-05
5.5276815e-05
7.9918979e-05
9.2184721e-05
9.3632789e-05
8.8470088e-05
8.0017112e-05
7.0532448e-05
6.1269588e-05
5.2586411e-05
4.4004499e-05
3.5548087e-05
2.5441392e-05
2.1768913e-05
4.0236268e-05
6.5686894e-05
8.3210485e-05
6.324596e-05
2.2432447e-05
1.3788503e-05
7.3265727e-05
0.00011008496
0.00012792141
0.00012932974
0.00012038733
0.00010678685
9.2260729e-05
7.8381482e-05
6.6280301e-05
5.6021797e-05
4.7028015e-05
3.9061169e-05
2.9931615e-05
2.2148736e-05
3.0774658e-05
6.1742069e-05
9.7134692e-05
9.690892e-05
6.1840097e-05
1.9145722e-05
1.2758214e-05
8.034194e-05
0.00012566749
0.00014916983
0.00015439678
0.00014773294
0.00013389008
0.00011635394
9.8468195e-05
8.2234667e-05
6.852574e-05
5.7288505e-05
4.8335592e-05
4.0472647e-05
2.9647452e-05
2.1433137e-05
3.1302003e-05
6.3753652e-05
0.00010122156
0.00011395965
9.1844556e-05
4.8249003e-05
1.2465372e-05
6.4077624e-05
0.00012104837
0.00014791321
0.00015651865
0.00015570587
0.00014743078
0.00013364049
0.0001169833
9.9923386e-05
8.4171419e-05
7.0514763e-05
5.9057325e-05
5.0166863e-05
4.1590272e-05
2.7035722e-05
2.5873303e-05
4.257259e-05
7.1821778e-05
0.00010448188
0.00011908486
0.00010645934
6.8938806e-05
3.369358e-05
8.0373269e-06
3.1646462e-05
0.00010629846
0.00012221294
0.00012777911
0.00013223145
0.00013466312
0.00013200302
0.00012316806
0.00011051308
9.6748824e-05
8.3504767e-05
7.1369464e-05
6.0491452e-05
5.1283587e-05
3.804977e-05
2.6259524e-05
3.3351976e-05
5.5435024e-05
8.1040244e-05
0.00010547148
0.00011612122
0.00010746591
7.8619068e-05
4.9035786e-05
1.7221542e-05
7.3317096e-05
8.9612103e-05
9.140223e-05
9.2768457e-05
9.8780307e-05
0.00010755228
0.00011134387
0.00010747475
9.8387082e-05
8.760617e-05
7.7104451e-05
6.7231343e-05
5.7812667e-05
4.8431569e-05
3.2922538e-05
2.4963546e-05
3.9073935e-05
6.3824872e-05
8.4903579e-05
0.00010046518
0.00010624831
9.9414849e-05
7.8952219e-05
5.5935709e-05
2.5660768e-05
7.7474047e-06
1.1644638e-05
5.9787774e-05
5.6858503e-05
5.5199813e-05
4.9427662e-05
5.8842899e-05
7.3993264e-05
8.5251945e-05
8.7565986e-05
8.1640091e-05
7.1816909e-05
6.2013605e-05
5.3676718e-05
4.6583138e-05
3.9017714e-05
2.5558927e-05
2.2761353e-05
4.2401746e-05
6.6079786e-05
8.1285993e-05
8.9643502e-05
9.1841278e-05
8.710473e-05
7.3729996e-05
5.6594898e-05
3.0424907e-05
1.3839339e-05
2.6005466e-05
3.45745e-05
2.9690435e-05
2.6438098e-05
2.5609446e-05
3.0897267e-05
4.0195901e-05
5.0562058e-05
5.737112e-05
5.699495e-05
5.0110883e-05
4.0661156e-05
3.2439958e-05
2.7296404e-05
2.3804249e-05
1.6872343e-05
2.0384505e-05
4.3538631e-05
6.2908079e-05
7.2474155e-05
7.5775831e-05
7.6081281e-05
7.3665051e-05
6.5979083e-05
5.335976e-05
3.2046531e-05
1.4639063e-05
1.6568048e-05
1.5819473e-05
2.3882679e-05
2.7374732e-05
2.7887056e-05
2.6453626e-05
2.5896921e-05
2.6390488e-05
2.7006449e-05
2.6088785e-05
2.2510221e-05