/*--------------------------------*- C++ -*----------------------------------*\
| =========                 |                                                 |
| \\      /  F ield         | OpenFOAM: The Open Source CFD Toolbox           |
|  \\    /   O peration     | Version:  2406                                  |
|   \\  /    A nd           | Website:  www.openfoam.com                      |
|    \\/     M anipulation  |                                                 |
\*---------------------------------------------------------------------------*/
FoamFile
{
    version     2.0;
    format      ascii;
    arch        "LSB;label=32;scalar=64";
    class       volScalarField;
    location    "350";
    object      p;
}
// * * * * * * * * * * * * * * * * * * * * * * * * * * * * * * * * * * * * * //

dimensions      [0 2 -2 0 0 0 0];

internalField   nonuniform List<scalar> 
150387
(
0.0064745374
0.0090395038
0.0086386522
0.0084413879
0.0083576166
0.0082856758
0.008226977
0.0084891374
0.011441944
0.010544917
0.0098360835
0.0091153729
0.0086294694
0.0082502698
0.0080813991
0.0080456716
0.0081111851
0.0078076044
0.0077933263
0.0093076766
0.011819574
0.012641823
0.011371737
0.0099603634
0.0089611292
0.0082411558
0.0078073565
0.0075261401
0.0074190629
0.007451139
0.0076009412
0.0071943287
0.0066867422
0.007283067
0.0086731855
0.010674301
0.011352149
0.014154499
0.013312527
0.0115839
0.0095811583
0.0081605124
0.0072401293
0.0066621695
0.006393499
0.0063210968
0.0063879127
0.0065436401
0.0067542671
0.0063191938
0.0055934694
0.0057242417
0.0065191778
0.0080913996
0.010309185
0.011544315
0.015029228
0.014377569
0.011848361
0.0092370857
0.0071504482
0.0057508894
0.0050311551
0.0047838002
0.0048297864
0.0050210085
0.0052804534
0.0055660402
0.0058398378
0.0054548683
0.0047097412
0.0045876095
0.0048578599
0.0059374479
0.008300362
0.010302233
0.011284131
0.014686087
0.011808734
0.008451269
0.0057531839
0.0040229536
0.0031825439
0.00297633
0.0031425554
0.0034932821
0.0039036148
0.0043163001
0.0047025536
0.0050214688
0.0047204181
0.0040529165
0.0037606081
0.0037253682
0.0043499605
0.0061965507
0.0086230403
0.010185763
0.01072398
0.0155438
0.011943405
0.0079575483
0.0047537747
0.0027855777
0.0018128985
0.0015579157
0.0017512874
0.002176846
0.002688601
0.0031950048
0.0036618428
0.0040766138
0.004398254
0.0041928294
0.0036224267
0.003252162
0.0030345427
0.0033503282
0.0046985678
0.0069100709
0.0089134089
0.010078186
0.010053401
0.015805758
0.012151636
0.0076251713
0.0043575475
0.0023034203
0.0012271026
0.00084847074
0.00095929903
0.0013594038
0.0018805098
0.0024132011
0.0028990791
0.0033256714
0.0036979533
0.0039804855
0.0038599407
0.0033963393
0.0030063147
0.0027058003
0.0028314672
0.0037796584
0.0056171994
0.0076278256
0.0090268584
0.0094641426
0.013617222
0.0090006583
0.0054116842
0.0031009969
0.0017445195
0.0010900731
0.00096573322
0.0011964049
0.0016150644
0.0020896864
0.0025373516
0.0029200226
0.0032402701
0.0035190466
0.0037379311
0.0036724753
0.0033205345
0.0029544558
0.00264499
0.0026748658
0.0033639799
0.0048382656
0.0066749359
0.0081648756
0.0087828601
0.0090879162
0.010494475
0.0066699492
0.0042201394
0.0027647006
0.0019001906
0.0015289784
0.0015303281
0.001773659
0.0021351255
0.0025113845
0.0028391063
0.0030898014
0.0032828569
0.0034512986
0.0036036748
0.0035726344
0.0033251516
0.0030202239
0.0027548419
0.0027631477
0.0032976673
0.0044873731
0.0060740767
0.0075566563
0.0082726269
0.0085566467
0.011855259
0.0079900132
0.0057156071
0.004108678
0.0030557236
0.0024075969
0.0021421056
0.002168122
0.0023761705
0.0026592169
0.0029321378
0.0031421602
0.0032670472
0.0033389833
0.0034086018
0.0035125385
0.0035121263
0.0033609352
0.0031405823
0.0029533336
0.0029879305
0.0034389005
0.0044186329
0.0057523918
0.0070949656
0.007811911
0.0081281441
0.0094138714
0.0070101938
0.0057773675
0.0046753115
0.0038077297
0.0031920077
0.0028719729
0.0028006967
0.0028933567
0.0030578779
0.0032145087
0.0033156248
0.0033345084
0.0033129156
0.0032949121
0.0033932174
0.0034599573
0.0034018826
0.0032792201
0.0031860264
0.0032739269
0.0036895467
0.0045199386
0.0056388259
0.0067973241
0.0075027257
0.0077769837
0.0079200109
0.0081014903
0.0074836379
0.0069038781
0.0060538757
0.0051725188
0.0043969873
0.0038412293
0.0035173747
0.0033885088
0.0033816
0.003417919
0.0034271037
0.0033328852
0.0031886826
0.0030877426
0.0032775383
0.0034306381
0.0034586097
0.0034266086
0.0034251975
0.0035730822
0.0039785239
0.0047026253
0.0056518524
0.006628814
0.0072542409
0.0075107083
0.0077344333
0.0084461624
0.0085869149
0.0080870428
0.0070499951
0.0058828824
0.004841045
0.0040812069
0.0036227861
0.0034239807
0.0033990781
0.0034484026
0.0034650128
0.0033044747
0.0032118322
0.003147372
0.0033456498
0.0034956343
0.0035533403
0.003583287
0.0036556022
0.0038569465
0.0042632869
0.0049178344
0.0057520426
0.006600463
0.0071678328
0.0074015447
0.0075737528
0.0085648559
0.0083880625
0.0077982046
0.0066966565
0.005438206
0.0043135625
0.0035392825
0.0031420243
0.0030606381
0.0031757508
0.0033626885
0.0035167396
0.0034812976
0.0033451892
0.0035075792
0.0035221344
0.0035865923
0.0036382261
0.0036969433
0.0038103808
0.0040445488
0.0044555256
0.0050798987
0.0058730104
0.0066862972
0.0072001785
0.0073827906
0.0075010306
0.0088136266
0.0084566051
0.007749566
0.0064726788
0.0050129895
0.0037088614
0.002859886
0.0025019293
0.0025491958
0.0028307028
0.0031784812
0.0034561031
0.003575
0.0036176254
0.0036173798
0.0035978798
0.0035980946
0.0035929307
0.0035838119
0.0036011013
0.0037059081
0.0039760115
0.0044765614
0.0051796862
0.0059979772
0.0066572865
0.0069962611
0.0071877832
0.0090184582
0.0087833474
0.0079936945
0.006525549
0.0047755901
0.0031946313
0.0021888865
0.0018127255
0.0019550956
0.0023826623
0.0028768542
0.0032724821
0.0035022279
0.0035987908
0.0036094805
0.0035479035
0.0034690863
0.003367943
0.0032511582
0.0031552459
0.0031521717
0.0033372954
0.0037868864
0.0044987935
0.0054236618
0.0063211777
0.0070542638
0.0073342993
0.0095406683
0.009353151
0.008548751
0.0069402312
0.0048546796
0.0028784868
0.0016108296
0.0011313706
0.0013173873
0.0018559057
0.0024717558
0.0029801665
0.0033208974
0.0035264274
0.0035402993
0.003409324
0.0032291935
0.0030237343
0.0028200895
0.002675806
0.0026795772
0.0029213063
0.0034746137
0.0043434634
0.0055337157
0.0068973067
0.008202691
0.010099867
0.0094215088
0.0077343811
0.0054075537
0.0029226086
0.00125777
0.00055907952
0.00071410122
0.0013160392
0.0020186792
0.0026189359
0.0030857467
0.0034434719
0.0034819293
0.0032636697
0.0029689656
0.0026583177
0.0023818644
0.0022212434
0.0022817092
0.0026685669
0.0034504372
0.004617335
0.0062837218
0.0084706573
0.010775177
0.010833054
0.010683622
0.0089857245
0.0066315529
0.003583874
0.0013295951
0.00026080618
0.00028151734
0.00087704039
0.0016209827
0.0022754462
0.0028616517
0.0034153515
0.0035201372
0.003218249
0.0028233464
0.0024340225
0.0021219064
0.0019846333
0.002147163
0.0027285464
0.0038193806
0.005515559
0.0077584777
0.010250045
0.012121586
0.012266264
0.010895802
0.0086087342
0.0051244811
0.0021003413
0.00044265205
0.00019696564
0.00068224433
0.0014059628
0.0020712957
0.002757054
0.0035209267
0.0037435257
0.0033930846
0.0029594566
0.0025727715
0.0023229408
0.002325959
0.0027234259
0.0036596348
0.0052633349
0.0074773624
0.01009178
0.011437494
0.012757577
0.012798768
0.011161414
0.0076562849
0.0038515692
0.0013198543
0.0006477108
0.0008796057
0.001501199
0.002141651
0.0028953285
0.0038437314
0.0042154419
0.0038841492
0.0035105848
0.0032431692
0.0031859243
0.0034887669
0.0043198284
0.0057728702
0.0078626707
0.010015881
0.011643042
0.011362515
0.014268312
0.013826555
0.011031551
0.0067849586
0.0031536548
0.0017948001
0.0015943598
0.002011789
0.0025978267
0.0033837074
0.0044404475
0.0049783062
0.0047389345
0.0045277353
0.0044892996
0.004739644
0.0054248357
0.0066546299
0.0083524433
0.010104281
0.011565092
0.012108193
0.015458604
0.014094089
0.010782337
0.0061457058
0.0038616174
0.0028929909
0.0029857561
0.003459344
0.0042006377
0.0052618998
0.005956912
0.0058297024
0.0058172253
0.0060306781
0.006522358
0.0073751471
0.0085959157
0.0098572085
0.011153207
0.011806964
0.015764691
0.014994038
0.010264426
0.0071933739
0.0050570053
0.0045025953
0.0047135608
0.0052622469
0.0061982527
0.0069925815
0.0069449744
0.0070965473
0.0074636316
0.0079716057
0.0087017564
0.0096960305
0.010502821
0.011129674
0.015846632
0.014513169
0.011730616
0.0084015784
0.0065658659
0.0061269848
0.0063034272
0.0069375447
0.0076595613
0.0076462325
0.0078079798
0.0081427737
0.0085746542
0.0092126519
0.0099369427
0.010162279
0.015927979
0.013802863
0.0098583438
0.0082614466
0.0074992721
0.0073840965
0.0078060436
0.0078830418
0.0080800623
0.0084343326
0.0087756722
0.0091997724
0.0096922237
0.0087231804
0.0078564013
0.0077464228
0.0081066895
0.0081648293
0.0097480202
0.0094145915
0.0090971667
0.0085750228
0.0083874015
0.008300082
0.0082358091
0.0082144615
0.0085448561
0.011201162
0.0099712974
0.0094037677
0.0087607292
0.0083910059
0.0080125041
0.0078892317
0.0078672072
0.0078467807
0.0075787281
0.0074654948
0.0081560514
0.0099464052
0.009970967
0.012100029
0.012052845
0.010240543
0.009080565
0.0083150989
0.007725652
0.0073986151
0.0072163028
0.0072002207
0.0072496255
0.0072710489
0.0067699398
0.0064121541
0.0067629183
0.0072075366
0.0093805702
0.010049965
0.013002015
0.011585705
0.010056966
0.0080683591
0.0069576225
0.0062900072
0.0059375185
0.0058747379
0.005941629
0.0061069959
0.0062710496
0.0063291562
0.0056911196
0.0051467494
0.0052961592
0.0056076446
0.0069014555
0.0088195656
0.010851331
0.013438476
0.011803975
0.0096545349
0.0071187869
0.0054432597
0.0044649902
0.0040969451
0.004118762
0.0043662928
0.0046852366
0.0050196921
0.0052951749
0.0054150225
0.0048282646
0.0042409403
0.0041962571
0.0041278827
0.0049844991
0.0073266225
0.0090971805
0.010899182
0.013383119
0.01151792
0.0091568768
0.0057406328
0.0036881706
0.0024881522
0.0020998295
0.0022311521
0.0026313878
0.0031363924
0.0036370389
0.0040923164
0.0044491076
0.0046140695
0.0041425283
0.0036252677
0.0034033877
0.0031242605
0.0035775821
0.0052148547
0.0077982866
0.0092554225
0.010487219
0.012425132
0.0083232953
0.0050870745
0.0027013114
0.0013747928
0.00085519624
0.00092825211
0.001343125
0.0019123828
0.0025056688
0.0030445786
0.0035091767
0.003869627
0.0040397981
0.0037025529
0.0032723347
0.0029579222
0.0025558313
0.0027438874
0.0039391449
0.0061988707
0.0083092276
0.0097969841
0.0090745668
0.013184289
0.0083091229
0.0052490356
0.0026561078
0.0011603498
0.00048013557
0.00038310735
0.00069088896
0.0012123662
0.0017957786
0.0023492092
0.002824643
0.0032195449
0.003526032
0.0036737847
0.0034712624
0.0031104463
0.0027697942
0.002334743
0.0023719719
0.0032090452
0.0051284143
0.0070437379
0.0086495346
0.0092803887
0.0095759116
0.006556108
0.0038460157
0.0021480502
0.0011626733
0.00078668387
0.00083571776
0.0011620306
0.0016226789
0.0021020333
0.002532441
0.002879251
0.0031535157
0.0033669695
0.0034753088
0.0033797079
0.0031013652
0.0027579793
0.0023649365
0.0023474625
0.0029647549
0.0045223097
0.0063158437
0.0079191981
0.0085645909
0.0088289599
0.011343902
0.0072273901
0.0053931738
0.0034563942
0.0023282477
0.0016868109
0.0014616242
0.0015338145
0.0018027342
0.0021618549
0.0025138358
0.0028090525
0.0030191737
0.0031777346
0.0032903066
0.003377125
0.0033536336
0.0031599484
0.002851526
0.0025478089
0.0025405621
0.0030442451
0.0043056573
0.0058707451
0.0074322332
0.0082242198
0.0086432332
0.0095902422
0.0064795562
0.005276648
0.0037600365
0.0028567655
0.0023149931
0.0021255623
0.0022018455
0.0024275962
0.0026940836
0.0029351018
0.0031156818
0.0031982234
0.0032200758
0.0032334769
0.0033181946
0.0033514309
0.0032290383
0.0029928816
0.0027990187
0.0028403485
0.0032899995
0.0043317816
0.0056378609
0.0070246152
0.0077784267
0.008060127
0.0087618785
0.006562461
0.0055784181
0.0043541613
0.0035220981
0.0029595701
0.0027214582
0.0027105891
0.0028368255
0.0030110697
0.0031623225
0.0032491499
0.0032232117
0.0031877363
0.0030746658
0.0032271411
0.0033510407
0.0032708631
0.0031497665
0.0030641824
0.0031748621
0.003609789
0.0045029127
0.0056090636
0.0067949649
0.0075217178
0.0077036508
0.0079066185
0.0080988683
0.0074313719
0.0067611716
0.0057386337
0.0047501412
0.0039227868
0.0034026334
0.003152581
0.0031067472
0.0031704165
0.0032500428
0.0032866029
0.0032430221
0.0031162055
0.002955238
0.0031221087
0.0033030914
0.0033265773
0.0033022286
0.0033159736
0.0034952039
0.0039344437
0.004721036
0.0056750928
0.0066661169
0.0072429818
0.0074247803
0.0077060583
0.0082427779
0.0082144606
0.0074815648
0.0063181105
0.0051158795
0.0040985094
0.0034472388
0.0031230639
0.0030537722
0.0031234975
0.0032248135
0.003265594
0.0031812523
0.0031674865
0.0030623876
0.0032244229
0.0033757928
0.0034144254
0.0034426829
0.0035201075
0.0037452088
0.0041891622
0.0049104078
0.0057815401
0.0066484388
0.0072141753
0.0073221056
0.0075547103
0.0084314917
0.0081083204
0.007367789
0.0060949528
0.0047721088
0.0036476445
0.0029773923
0.0027081709
0.0027482678
0.0029547328
0.0031881063
0.0034598279
0.0033758416
0.0032785461
0.0034401498
0.0034622826
0.0034947838
0.0034963789
0.0035027149
0.0035742282
0.0037907662
0.0042138504
0.0048957848
0.0057365524
0.0065822948
0.0070580959
0.0072460623
0.0074512765
0.0087138468
0.0083578435
0.0074016903
0.0059066014
0.004362097
0.0030463523
0.0023207212
0.0021080377
0.0022807884
0.0026351563
0.0030131438
0.0033386615
0.0035053997
0.0035410411
0.0035310584
0.0035146958
0.0034873487
0.0034242264
0.0033492027
0.0033017183
0.0033588672
0.0036101301
0.0041420888
0.0049130082
0.0058939591
0.0066023982
0.006955373
0.0072340379
0.0091203934
0.0086561416
0.0076485274
0.0058776853
0.0040236447
0.002437698
0.0015936002
0.0014016323
0.0016953779
0.0021933938
0.0027048039
0.0031344296
0.0033836913
0.0034512067
0.0034276121
0.0033654894
0.0032819205
0.0031462245
0.0029839297
0.0028554083
0.0028583964
0.0030893542
0.0036060187
0.0044145262
0.0055541053
0.0064085102
0.0070601924
0.0095548546
0.0092775842
0.0082244052
0.0062150597
0.0039693209
0.0019729429
0.00091615308
0.00066556365
0.001046151
0.0016701196
0.0023064815
0.0028383994
0.0031874301
0.0033267334
0.0033058823
0.0031642268
0.0029644251
0.002728532
0.0025052805
0.0023677824
0.0024106771
0.002716651
0.003376625
0.0043434831
0.0056410773
0.0065952255
0.0076379744
0.0098338442
0.0090095881
0.0069086297
0.0043662732
0.0018279071
0.00042590077
1.2987948e-05
0.00042117465
0.001137982
0.0018775701
0.0024896343
0.002933244
0.0031912631
0.0031867217
0.0029688274
0.0026644269
0.0023294879
0.0020326872
0.0018725514
0.0019676964
0.0024199732
0.0032994922
0.0045319155
0.0061787903
0.0076232456
0.008858502
0.010817141
0.010181246
0.008073007
0.0054244135
0.0022695829
0.00033255479
-0.00037880535
-3.5827807e-05
0.00071638334
0.0015300687
0.0021738136
0.0027068482
0.0031249689
0.0031667373
0.0028798899
0.0024791144
0.0020609583
0.0017158163
0.0015587245
0.0017289017
0.0023354627
0.0034695227
0.0051911712
0.0069723032
0.0090070081
0.0093865026
0.01161923
0.011976831
0.010117298
0.0072087505
0.0036017971
0.00090910089
-0.00029956649
-0.00015422134
0.00054118831
0.0013832868
0.0020133633
0.0026167344
0.0032299828
0.0033581361
0.0030475866
0.0026178582
0.0022040571
0.0019184446
0.0018993797
0.00231034
0.003264321
0.0048711829
0.0069673788
0.0094246475
0.010262452
0.012231886
0.011686746
0.0098446248
0.0058089514
0.0023783228
0.00044015044
0.00022695865
0.00073741186
0.0015367532
0.0021506418
0.0027883201
0.0036056688
0.0038464238
0.0035748899
0.0032130727
0.0029157102
0.0028161072
0.0030914949
0.0039194079
0.0053261941
0.0075638989
0.0090404295
0.011108608
0.013784848
0.012008337
0.0093106079
0.0049390673
0.0020769334
0.0012279644
0.0014336603
0.002091221
0.0026784325
0.0033527105
0.0043379754
0.0047070991
0.0045553714
0.0043785485
0.0043397456
0.0045775456
0.0052485393
0.0064142385
0.0080776044
0.0094032408
0.01076915
0.01091385
0.014584475
0.011680453
0.0083140066
0.0048375357
0.0030181093
0.0026099392
0.003056785
0.0035744291
0.0042496135
0.0053045987
0.0057695118
0.0057341496
0.0057495312
0.0059732666
0.0064355327
0.007188265
0.0084771784
0.0094156138
0.010615437
0.010715651
0.014559751
0.012346677
0.0079997385
0.0058782793
0.0045793672
0.0045984913
0.004944485
0.0054516711
0.0063856439
0.0068904465
0.0069717071
0.0071552852
0.0075336665
0.0080000778
0.0087080223
0.0098623304
0.010297646
0.010463066
0.013080554
0.012519228
0.0089483125
0.0064993106
0.0057694486
0.0059575401
0.006461679
0.0071549197
0.0075373202
0.0077000346
0.0079063889
0.008295719
0.0085912487
0.0091145533
0.010245872
0.012073216
0.010948186
0.0086645336
0.0076665233
0.0073036121
0.0073549956
0.0076359272
0.0077846701
0.0080594412
0.0084016171
0.0087766168
0.00891725
0.0084318896
0.0079543622
0.0077403743
0.0077974694
0.008052186
0.009490829
0.0093072323
0.0090624161
0.0084844739
0.0083037473
0.0082184874
0.0081893883
0.0083214123
0.0083998647
0.010671288
0.0095691198
0.0091640767
0.0085662592
0.0082557056
0.00786578
0.0077201537
0.0076798219
0.0076410568
0.0075575397
0.0072906285
0.0074707933
0.0085391076
0.0085338446
0.011151401
0.011356527
0.0095844185
0.0085198308
0.0079157578
0.007404929
0.0071407341
0.0070006113
0.0070025269
0.0070420864
0.0070134197
0.0066919323
0.0063364114
0.0063833268
0.0064546334
0.0082413827
0.0087509343
0.011556214
0.010247172
0.0089979014
0.0070984654
0.0061313953
0.0056187295
0.0054056307
0.0054698406
0.0056222849
0.0058288834
0.0059890625
0.0059896734
0.0055593387
0.0050875167
0.004986743
0.0051433226
0.0060523772
0.0076927761
0.0097813988
0.011610293
0.010110865
0.008240987
0.00583235
0.0043214794
0.0035312122
0.0033483871
0.0035271416
0.003907957
0.0043180887
0.0046998431
0.0049663807
0.0050355932
0.0046353154
0.0041420976
0.0038829238
0.0037207996
0.0042873107
0.0064169839
0.008055837
0.01005886
0.010999881
0.0094866895
0.0075345109
0.0042776816
0.0024095204
0.0013920546
0.0011848286
0.0014989189
0.0020531036
0.0026845453
0.0032693143
0.0037625259
0.0041052041
0.004229797
0.0039087648
0.0034370449
0.0030708627
0.0026968403
0.0029388569
0.0043507332
0.0068859541
0.0083443139
0.0099547483
0.010183141
0.0064948707
0.0035957531
0.0014658314
0.00030369964
-6.4103932e-05
0.00015647277
0.00072443421
0.0014256853
0.0021192534
0.0027206786
0.0032079104
0.0035474408
0.0036870039
0.0034528116
0.003027645
0.0026073961
0.0021216288
0.0021147988
0.0031556738
0.005343991
0.0075774113
0.0093190981
0.0082704846
0.010266993
0.0065289671
0.0040496178
0.0017243513
0.00029237298
-0.0003186575
-0.00031070934
0.00010844659
0.00073921933
0.0014167953
0.0020397031
0.0025551815
0.0029597306
0.0032428532
0.0033677181
0.0032192811
0.0028580215
0.0024308303
0.001928122
0.0017937684
0.0024980175
0.004371154
0.0063574968
0.0081969281
0.008948988
0.0077697937
0.005465207
0.0030971289
0.001492782
0.00053473231
0.00021547614
0.00033712381
0.00074046376
0.0012767609
0.0018183256
0.0022928802
0.0026606052
0.0029335923
0.0031251699
0.0032176096
0.0031460283
0.0028572392
0.0024730422
0.0019997364
0.0018425564
0.0023481345
0.0038712589
0.0057155113
0.007526474
0.0082887156
0.008608046
0.0087892309
0.0062730245
0.0048366414
0.0030060365
0.0018640639
0.0012147307
0.0010237824
0.0011542804
0.0014919927
0.0019035976
0.0022912351
0.002612001
0.0028293821
0.0029834381
0.0030778787
0.0031531638
0.0031540145
0.0029395778
0.0026130839
0.0022276458
0.0021109354
0.0025218592
0.0037630864
0.00537769
0.0071505539
0.0080619637
0.0085905384
0.0083138273
0.0062127543
0.0050475961
0.0035135544
0.0025688613
0.0019765085
0.0017793644
0.0018795075
0.002143992
0.0024612882
0.0027507489
0.0029628231
0.0030417588
0.0030373524
0.0030353178
0.003120752
0.0031665525
0.0030481911
0.0027735542
0.0025163801
0.0024740174
0.0028514304
0.0038825519
0.0052356864
0.0067868379
0.0076417459
0.0079908238
0.00816769
0.0065532909
0.0055522899
0.0042728848
0.0033447528
0.002704859
0.0024297911
0.0024207789
0.0025789407
0.0027935803
0.0029750885
0.0030798492
0.0030372356
0.002991807
0.0028624319
0.0030347111
0.0031766134
0.0030926337
0.00294084
0.0028034137
0.0028523049
0.0032353363
0.0041271001
0.0052830172
0.006591615
0.0074248812
0.0076309934
0.0078225947
0.0081028566
0.0072685156
0.0064964558
0.005343253
0.004283866
0.0034473869
0.0029705212
0.0027862721
0.0028073408
0.002924445
0.0030410114
0.0031106288
0.0030761978
0.0029140535
0.0027186153
0.002919211
0.0031115554
0.0031344089
0.0030853765
0.0030555137
0.003186114
0.0035899771
0.0043860433
0.0053909952
0.0064719445
0.0071235952
0.0073477283
0.0076742286
0.0080772455
0.0078908123
0.0070478456
0.0057987377
0.0045503141
0.0035428612
0.0029548095
0.002716384
0.0027309898
0.0028631722
0.0030043622
0.003055529
0.0029845181
0.0030278355
0.0028635653
0.0030186995
0.0031836078
0.0032104398
0.0032085427
0.0032401609
0.0034194324
0.003835012
0.0045722256
0.0054996174
0.0064403988
0.0070846804
0.0072666134
0.0075037067
0.0082962379
0.00783915
0.0070188733
0.0056275199
0.0042441875
0.0031145862
0.0024999545
0.0023127744
0.0024312345
0.0026956698
0.0029597998
0.0032449195
0.0031403374
0.003138511
0.0032713131
0.0033035193
0.0033159521
0.0032865451
0.0032561803
0.0032840672
0.003457555
0.0038543823
0.0045453568
0.005431543
0.0063587281
0.0068727889
0.0071596692
0.0074355519
0.0086032524
0.0081729263
0.007088303
0.0054176715
0.0038025604
0.0024802927
0.0018211595
0.0016997975
0.0019569182
0.0023721766
0.0027916257
0.0031571582
0.0033304248
0.0033769041
0.0033729417
0.0033512847
0.0033048662
0.003219792
0.0031138673
0.0030429295
0.003112601
0.0034080828
0.0040107149
0.0048546628
0.0058814601
0.0065834272
0.0069682725
0.0073270244
0.0090213209
0.0084461665
0.0073080574
0.0053015774
0.0033648024
0.001772774
0.0010140607
0.00093460184
0.0013341452
0.0019042086
0.0024654992
0.0029202392
0.0031879688
0.0032562231
0.0032353727
0.0031800813
0.00309473
0.0029254731
0.0027186118
0.0025773592
0.0025946135
0.0028823077
0.0035031669
0.0043991045
0.005580295
0.0064077751
0.0070493663
0.0094689653
0.0090348528
0.0078206544
0.0055149099
0.0031673249
0.0011645954
0.00021123946
0.00010541751
0.00062468733
0.0013417819
0.0020422598
0.0025901887
0.0029600404
0.0030917455
0.0030723014
0.0029346615
0.0027275639
0.0024685888
0.0022120271
0.0020281555
0.0020538672
0.0023952841
0.0031317784
0.0041610654
0.0054638959
0.0062887474
0.0071471162
0.0094350374
0.0084459002
0.0060611915
0.0033823465
0.00083914016
-0.00043131841
-0.00065987302
-7.7469831e-05
0.00076080278
0.0015774853
0.0022031227
0.0026691131
0.0029031733
0.0028888397
0.002679566
0.0023711805
0.0020109684
0.0016765761
0.0014768923
0.0015432585
0.0019983696
0.0029263467
0.0041957138
0.0057252766
0.0068399432
0.0075844189
0.010491512
0.0095256121
0.0070821927
0.0042535767
0.0010906317
-0.00067758282
-0.0011677976
-0.00061787908
0.000293392
0.0011842266
0.0018617066
0.0024163361
0.0027770042
0.0027877862
0.0025105854
0.0021014621
0.0016464076
0.0012513029
0.0010460734
0.0011826362
0.00180924
0.0029747998
0.004614416
0.0060948534
0.0077102541
0.0077301736
0.011248034
0.011269095
0.0090368161
0.0058660978
0.0022208289
-0.00025563492
-0.0011942327
-0.00081654768
8.1475117e-05
0.0010014218
0.0016933964
0.0023275478
0.0028295412
0.0029005482
0.0025996788
0.0021530441
0.0016823812
0.0013227828
0.0012338189
0.0015827013
0.0024883799
0.0040100461
0.0059516469
0.0081315429
0.0088537433
0.01135045
0.010315805
0.0083798905
0.0042223613
0.0010371075
-0.00056009509
-0.00050024438
0.00025138092
0.0011441521
0.0018523574
0.0025345501
0.0031763464
0.003339041
0.0030759104
0.0026845411
0.002318077
0.0021252659
0.0023013751
0.0030367645
0.0043499235
0.0065399081
0.0077810036
0.010003212
0.012600428
0.010237458
0.0075690899
0.0033279666
0.00099784854
0.00049536134
0.00091632851
0.0017310997
0.0024395902
0.0031648527
0.0039276001
0.0042139058
0.0040761469
0.0038614816
0.0037493394
0.0038860874
0.0044482613
0.0055134571
0.0071251867
0.0082753468
0.0096571139
0.0095799659
0.012954419
0.009511524
0.006354735
0.003476538
0.0021805631
0.0020678618
0.0027008834
0.0033840333
0.0041367791
0.0049624251
0.0053508532
0.0053293185
0.0053051184
0.0054595361
0.0058229823
0.0065018129
0.0077578465
0.0085019015
0.0097843652
0.0096354007
0.012543243
0.0099706809
0.0060830413
0.0046272482
0.0038726232
0.0042088394
0.0047242209
0.005390532
0.0061540479
0.0065773838
0.0066981588
0.0069024012
0.0072552309
0.0076296623
0.0082904964
0.0094002365
0.0098189778
0.0096353936
0.010211091
0.009789027
0.0069625349
0.0053106952
0.0052249166
0.0056544985
0.0063827526
0.0069981337
0.0073049597
0.0075557192
0.0077632589
0.0081392749
0.0083269393
0.0089170543
0.010163015
0.0087368094
0.0083649775
0.0072411734
0.0068957892
0.0070390548
0.0073021199
0.0075209297
0.007694981
0.0080164599
0.0083450678
0.0087000757
0.00866725
0.007360565
0.0075363435
0.0077446647
0.0078276211
0.0079926297
0.0092426112
0.0091685874
0.0089843186
0.0083989882
0.0082280631
0.008152981
0.00816309
0.008387712
0.0081974448
0.010064277
0.0090305
0.0088346171
0.008302199
0.0080990477
0.0077294354
0.0076037255
0.0075475982
0.0074761881
0.0074149905
0.0068663066
0.0067238017
0.0072954127
0.0073138578
0.009917132
0.010445034
0.0086946364
0.0077429527
0.0073395714
0.0069365887
0.0067748591
0.0067186681
0.0067846566
0.0068388609
0.0068011926
0.0065470189
0.0061081248
0.0059337674
0.0056477523
0.0071046341
0.0075390952
0.0098549699
0.0085270841
0.0075038644
0.0057343397
0.0049333763
0.004639622
0.0046264848
0.0048777708
0.0051718628
0.0054679499
0.0056668278
0.005673417
0.0053256154
0.0048693924
0.0046483882
0.0045595037
0.0051668662
0.0064716164
0.0085442378
0.0095346727
0.0080818953
0.0064022751
0.0041251723
0.0027832909
0.0022089366
0.002258681
0.0026569405
0.003234211
0.0037904604
0.0042652026
0.0045708036
0.0046472019
0.0043246523
0.0038873836
0.00356805
0.0032441243
0.0035150182
0.0053158417
0.0068303941
0.008985639
0.0087324102
0.0072464427
0.0055295018
0.0024366502
0.00073731801
-0.00012224274
-0.00014060303
0.00038879151
0.0011567435
0.0019782807
0.0027028504
0.0032796645
0.003652705
0.0037786961
0.003520521
0.0031075622
0.0027103145
0.0022117048
0.0021915539
0.0032859563
0.0057260594
0.0072023177
0.0092153591
0.0079769721
0.0046381869
0.0019930792
4.5115296e-05
-0.0010606483
-0.0013272469
-0.00096795595
-0.00022886389
0.00063659294
0.0014754747
0.0021823267
0.0027283695
0.0030793785
0.0032072468
0.0030163599
0.0026315965
0.0021832026
0.0015697398
0.0013355176
0.0021113358
0.0042057088
0.0065508087
0.0087054748
0.0074434223
0.0079035502
0.0048437091
0.0028046515
0.00072878471
-0.00068375661
-0.0013156496
-0.0012868089
-0.0007814417
-4.0410478e-05
0.00074958014
0.0014734009
0.0020600297
0.0025015388
0.0027812112
0.0028855877
0.0027604697
0.0024148594
0.0019519597
0.0013197124
0.00097517658
0.0014862398
0.0033212717
0.0053951052
0.0075866077
0.008490537
0.0061891526
0.0044805965
0.0024041687
0.00087510792
-0.00012105438
-0.00049500318
-0.00039140243
4.7401215e-05
0.00064670105
0.0012615602
0.0018038217
0.0022161674
0.0025074818
0.0026858923
0.0027545123
0.002687982
0.002402088
0.0019687919
0.0013943093
0.0010719805
0.0014186337
0.0029329616
0.0048499826
0.0069859079
0.0079109479
0.0083748146
0.0070312393
0.0053428804
0.004323859
0.0026303833
0.0014816797
0.00074042828
0.00047027392
0.00055995535
0.00090107963
0.0013637092
0.0018088604
0.0021708601
0.0024124509
0.0025789727
0.002660952
0.0027154954
0.0027167201
0.0024950186
0.0021362657
0.0016575602
0.001418654
0.0017094799
0.0029635581
0.0046577449
0.0067376286
0.0078451117
0.0085046121
0.0073468246
0.0058080229
0.0048745326
0.0033354301
0.0022891116
0.0015767831
0.0013009295
0.0013545909
0.0016212084
0.0019697704
0.0023011162
0.0025690113
0.0026695347
0.0026592112
0.0026461047
0.0027054768
0.0027649761
0.0026399983
0.0023248826
0.0019937709
0.0018633869
0.0021617309
0.0032179562
0.0046459797
0.0064359764
0.0074704357
0.007895404
0.0076567002
0.0064062257
0.005458602
0.004054208
0.002995231
0.0022419522
0.0019038098
0.0018759746
0.0020486317
0.0023009403
0.0025326911
0.0026807643
0.0026263439
0.0026000426
0.0024818694
0.0026385885
0.002795638
0.0027038452
0.0025131645
0.0023200807
0.002311276
0.0026527146
0.0035805957
0.0048151032
0.0063048782
0.0073265313
0.0075564903
0.0077542195
0.0080432351
0.0070632367
0.006221876
0.0049118151
0.0037339224
0.0028139576
0.0023161668
0.0021573673
0.0022345914
0.0024154753
0.0025950491
0.0027264701
0.0027662892
0.0025860796
0.0023983167
0.0025276932
0.0027291506
0.0027381529
0.0026610364
0.0025910397
0.0026876536
0.0030783034
0.0039224458
0.0050058824
0.0062356717
0.0070176934
0.0072818592
0.0076235206
0.007976409
0.0076357282
0.0066660942
0.0052685424
0.0039136531
0.0028392399
0.0022551701
0.0020619712
0.0021456415
0.0023453327
0.0025532643
0.0026520681
0.0026764921
0.0027651967
0.0025784275
0.0026441212
0.0028006272
0.0028017977
0.0027694805
0.0027682654
0.0029308202
0.0033579734
0.0041586373
0.0051678198
0.006225521
0.007007854
0.0072377665
0.0074581982
0.0081825604
0.0075976666
0.0066205878
0.0050433546
0.0035629815
0.002374183
0.0017840076
0.0016542736
0.0018474813
0.0021748679
0.0024941122
0.0027932627
0.0027761324
0.0028866225
0.0029916291
0.0029561435
0.0029227015
0.0028621616
0.0027985191
0.0028025202
0.0029766257
0.00340798
0.0041769224
0.0051505193
0.0061774228
0.0067484826
0.007117389
0.0074230801
0.0084875898
0.0079830774
0.006674142
0.0047435213
0.003021239
0.0016449746
0.0010391332
0.0009983102
0.0013489037
0.001835692
0.002319919
0.0027223502
0.0029366653
0.0030124592
0.0030064076
0.0029711791
0.0029026835
0.0027840846
0.0026503979
0.002586294
0.002693237
0.0030571915
0.0037598814
0.0046983573
0.0058123082
0.0065091575
0.0069763099
0.0074106765
0.0088892526
0.0081677099
0.006812995
0.0044685133
0.0024158096
0.0007741287
0.00010936626
0.00014870211
0.00067225113
0.0013274107
0.0019615699
0.0024408903
0.0027497231
0.0028371407
0.0028223341
0.0027724666
0.0026707627
0.0024650735
0.0022481809
0.0021300088
0.0022138866
0.0025918266
0.0033216212
0.0042992529
0.005526819
0.0062709756
0.0069710707
0.0093201843
0.0086991502
0.0072314195
0.0044949645
0.0020119283
-3.7762004e-05