/*--------------------------------*- C++ -*----------------------------------*\
| =========                 |                                                 |
| \\      /  F ield         | OpenFOAM: The Open Source CFD Toolbox           |
|  \\    /   O peration     | Version:  2406                                  |
|   \\  /    A nd           | Website:  www.openfoam.com                      |
|    \\/     M anipulation  |                                                 |
\*---------------------------------------------------------------------------*/
FoamFile
{
    version     2.0;
    format      ascii;
    arch        "LSB;label=32;scalar=64";
    class       volScalarField;
    location    "300";
    object      epsilon;
}
// * * * * * * * * * * * * * * * * * * * * * * * * * * * * * * * * * * * * * //

dimensions      [0 2 -3 0 0 0 0];

internalField   nonuniform List<scalar> 
150387
(
0.00026598403
4.7473137e-05
3.3627518e-05
2.7371463e-05
2.3048548e-05
0.00010797438
0.00028476567
0.00049737675
0.00056725683
5.6235821e-05
3.9039755e-05
3.3242446e-05
3.1142144e-05
3.1808513e-05
3.2513431e-05
3.8831781e-05
0.00018469861
0.0002454041
0.00037051239
0.00043659313
0.00039846295
6.1904767e-05
4.9369381e-05
4.2782024e-05
3.9987893e-05
3.8383498e-05
3.8664432e-05
4.0305563e-05
4.2509465e-05
5.9326884e-05
0.00020367213
0.00019559693
0.00027285519
0.00047037524
0.00033946463
0.00021522912
5.7210985e-05
0.0007988272
9.0151937e-05
8.4968911e-05
8.9986168e-05
8.6823849e-05
7.7876953e-05
6.7158775e-05
5.8477499e-05
5.2617542e-05
5.167311e-05
6.8875405e-05
0.00015895764
0.00018114216
0.00027852196
0.0003582075
0.00022618715
0.00033731727
0.00026954021
0.00012900122
0.00088020843
0.00014810294
0.00021927955
0.00025214541
0.00023454062
0.00019232661
0.0001466641
0.00010806184
8.1720562e-05
6.6683209e-05
6.0117088e-05
6.7571745e-05
0.00014293232
0.00018794199
0.00024903943
0.00022608031
0.00017655948
0.00034397614
0.00034364568
0.00017014929
6.3241589e-05
0.00027486652
0.00045171695
0.00051377266
0.00044864913
0.00035421587
0.00026319826
0.00018925189
0.00013620581
0.00010121649
7.9482963e-05
6.718748e-05
6.3351416e-05
0.0001301559
0.00017386533
0.00019843615
0.00015936162
0.00018258249
0.00029829698
0.00034338341
0.00021033611
6.8726852e-05
7.5171091e-05
0.00023815589
0.000541599
0.00061075885
0.00055678802
0.00046174944
0.00036116454
0.00027091174
0.00019959724
0.00014687357
0.00011024479
8.6326227e-05
7.0679406e-05
6.0000206e-05
0.00010744371
0.00014534732
0.00015415767
0.00013947725
0.00018241497
0.00024508265
0.00028604105
0.00020594915
8.3778106e-05
4.184636e-05
0.00012901616
0.00050810454
0.00046347387
0.00050191483
0.00050570507
0.00045747152
0.0003793044
0.00030655409
0.00024161443
0.00018677391
0.00014343157
0.00011089091
8.6821967e-05
6.9266368e-05
5.6650794e-05
8.2331262e-05
0.00011392874
0.00012386165
0.0001293942
0.00016376746
0.00019516953
0.00021832609
0.00017072663
8.4440685e-05
3.5523335e-05
3.1141475e-05
0.00068717217
0.00095433469
0.00070603101
0.00045494306
0.00033277113
0.00028084099
0.0002403685
0.00020320508
0.00016625307
0.00013167699
0.00010298247
8.0594105e-05
6.3171343e-05
5.2928297e-05
6.377427e-05
8.6436782e-05
0.00010118413
0.00011672632
0.00013767383
0.00015202289
0.00015939194
0.00013072052
7.3565496e-05
3.3645593e-05
2.3788338e-05
5.5264559e-05
0.00074627337
0.00088943325
0.000818956
0.0006188493
0.00042978255
0.00030210307
0.00022516848
0.00017971076
0.00014372441
0.00011252249
8.7637516e-05
6.8538775e-05
5.3399281e-05
4.8385072e-05
5.3033742e-05
6.5598582e-05
8.2034483e-05
9.8964222e-05
0.00011148207
0.00011673492
0.00011374765
9.597975e-05
5.936469e-05
3.1520668e-05
2.0698397e-05
2.6287027e-05
0.00059815877
0.00057898368
0.0004507543
0.00052026128
0.00050767913
0.00042309599
0.0003232404
0.0002338511
0.00016967025
0.00012369313
9.2296753e-05
7.239093e-05
5.7899146e-05
4.1802028e-05
4.1647248e-05
4.7739265e-05
5.1790829e-05
6.5703339e-05
8.0076796e-05
8.8308472e-05
8.9241231e-05
8.3185797e-05
6.9773278e-05
4.701093e-05
2.9374068e-05
2.0193199e-05
2.3454578e-05
0.00046355481
0.00044242467
0.00029629991
0.00028333743
0.00032198607
0.00030810248
0.00025187562
0.00018811667
0.00013363714
9.5075006e-05
7.8724461e-05
7.3343312e-05
5.2814633e-05
3.0232678e-05
3.2253444e-05
4.1423794e-05
4.1817362e-05
5.2312995e-05
6.3318969e-05
6.9389088e-05
6.9478183e-05
6.4331198e-05
5.4040684e-05
4.0253525e-05
2.8197914e-05
2.1583488e-05
1.8592119e-05
4.9224159e-05
0.00037520964
0.00026109353
0.00021540543
0.00019276716
0.00019538578
0.00019127561
0.00016175744
0.00012112354
8.8123283e-05
8.1799488e-05
9.5890422e-05
8.8525069e-05
4.1484711e-05
1.2198659e-05
2.1417376e-05
2.8217888e-05
3.3010867e-05
4.1591828e-05
4.9858329e-05
5.4950187e-05
5.61973e-05
5.3659823e-05
4.788124e-05
4.0728972e-05
3.3348543e-05
2.6455818e-05
1.9223299e-05
1.9014242e-05
0.00022786759
0.0001805992
0.00015711856
0.00014460859
0.00013709361
0.0001232272
0.0001015189
8.0040393e-05
7.3948729e-05
8.588646e-05
9.5679191e-05
7.6859198e-05
3.3516649e-05
1.0294546e-05
1.2008421e-05
2.297183e-05
3.4132493e-05
4.1765342e-05
4.6024901e-05
4.6396358e-05
4.5888569e-05
4.5934448e-05
4.8279473e-05
5.7955266e-05
7.2688626e-05
8.1566759e-05
6.6238156e-05
2.3537034e-05
0.00011985656
0.00014293829
0.00011251052
8.6682032e-05
7.4706333e-05
7.3473476e-05
7.5497276e-05
7.5671492e-05
7.243599e-05
6.7112347e-05
5.819417e-05
4.5309074e-05
2.6434223e-05
1.0915709e-05
1.441766e-05
1.9912485e-05
3.1093445e-05
3.8731876e-05
4.3281839e-05
4.9440792e-05
6.4889751e-05
8.7622821e-05
0.00010806994
0.00011845665
0.00012764218
0.00014070386
0.00010847404
0.00014634304
2.1779943e-05
3.389827e-05
4.6712982e-05
5.8772974e-05
7.1634018e-05
8.395751e-05
9.1639449e-05
9.3782485e-05
9.0049942e-05
8.0017277e-05
6.4947767e-05
4.81513e-05
3.4905824e-05
3.3712395e-05
3.3086696e-05
3.1028657e-05
3.2894702e-05
4.4128441e-05
5.7326662e-05
7.5332879e-05
9.9424374e-05
0.00012604149
0.00014518716
0.00014732638
0.00014693148
0.0001773651
0.00018144721
0.00016424965
2.8458295e-05
3.3645295e-05
3.9067003e-05
5.7715785e-05
8.1766537e-05
0.00010374492
0.00011588303
0.00011989014
0.00011610642
0.00010426932
8.5438619e-05
6.4387618e-05
5.7444677e-05
7.4329933e-05
7.8756965e-05
5.4032732e-05
4.6202862e-05
6.1538659e-05
7.8177939e-05
9.5538034e-05
0.0001161856
0.00014459196
0.00017875302
0.00019966104
0.00019903613
0.00022766805
0.00031444215
0.00040190905
9.9869215e-05
3.378063e-05
3.4685908e-05
6.3036985e-05
0.0001084234
0.00014178313
0.00015670764
0.00015631754
0.00014774541
0.00013242247
0.00011061149
8.6094969e-05
6.8972628e-05
9.1477641e-05
0.00010049637
6.5500438e-05
5.9369966e-05
7.8074064e-05
9.7559097e-05
0.00011287907
0.00012253633
0.00013682817
0.00018029192
0.0002541739
0.00031148237
0.0003353888
0.00047443165
4.3748584e-05
3.6302005e-05
7.19811e-05
0.00014989265
0.00020306505
0.00021779368
0.00020524441
0.00018447368
0.00016256646
0.00014230886
0.00011913373
8.493458e-05
7.5974541e-05
8.8069302e-05
6.5291304e-05
6.8300435e-05
8.9205574e-05
0.00011206898
0.00013219222
0.00014260376
0.00014044699
0.00014534705
0.00022126764
0.00039175763
0.00050098711
0.0003707251
6.3345553e-05
4.0864429e-05
7.8581653e-05
0.00019775306
0.00028863665
0.00030411963
0.0002691763
0.00022307752
0.0001924442
0.00018467774
0.00016647009
0.00011973427
7.641493e-05
6.5337972e-05
6.1687198e-05
7.1920702e-05
9.3614275e-05
0.00011966207
0.00014960243
0.0001807135
0.00020570304
0.0002039508
0.00018021123
0.00021721101
0.00034296175
0.00017555063
5.1963056e-05
7.8436927e-05
0.00023355533
0.00039176183
0.00041075801
0.00034588747
0.00025995645
0.00023021884
0.00024864923
0.00022614588
0.00016489956
0.00010391235
6.3293457e-05
5.7931186e-05
7.0589015e-05
9.1412852e-05
0.00012161489
0.0001638168
0.00021995344
0.00028535645
0.00035120597
0.00038290404
0.00030408569
7.7158082e-05
0.00011450048
7.5200599e-05
0.00023135465
0.00049300506
0.00052684448
0.00043722916
0.00029235159
0.00030714306
0.00034553007
0.00029157961
0.00020671357
0.00013627108
8.4000947e-05
5.4066476e-05
6.5195762e-05
8.3027894e-05
0.00011603388
0.00016725061
0.00023705704
0.00031611531
0.00036794726
0.00033157468
0.00021271081
0.00017340015
0.00010277617
0.0001751956
0.00052137804
0.00062235808
0.00051330905
0.00034189037
0.0004550893
0.00045463287
0.00034284172
0.00022505305
0.00015417209
0.00010531025
5.1380931e-05
5.5968316e-05
6.7963945e-05
9.3538002e-05
0.00012889048
0.000170556
0.00020013567
0.0001858574
0.00013231022
0.00013051244
0.00012536238
0.00038454575
0.00063087409
0.0005209947
0.00050497337
0.00068849285
0.00054477213
0.00034153145
0.00021104705
0.00015539871
0.0001189263
5.6283224e-05
4.4399362e-05
4.4962101e-05
5.5229201e-05
6.7337776e-05
7.3613119e-05
6.6237328e-05
5.4152322e-05
7.7009245e-05
0.00020187987
0.00044013565
0.00045689458
0.00079541375
0.00090059882
0.00055010482
0.00028957933
0.00021277783
0.00016509299
0.0001245706
7.2296019e-05
3.3265052e-05
2.7718307e-05
2.8142994e-05
2.9441913e-05
3.2576342e-05
4.724675e-05
0.0001141158
9.5608455e-05
0.00039407054
0.00094710792
0.00088847455
0.00049113814
0.00036630077
0.00027426816
0.00018983073
0.00013581339
8.899129e-05
2.4486381e-05
1.9293252e-05
1.8813856e-05
2.2241485e-05
4.2540511e-05
0.00022566807
0.00025120763
0.0006907173
0.00072509786
0.00059975113
0.00035177588
0.00022494238
0.0001306369
8.0444126e-05
1.8988877e-05
1.9363483e-05
2.8806279e-05
6.5787724e-05
0.00037184619
0.00036389448
0.00026294542
0.00015661827
0.00015030286
2.1052994e-05
0.00013175518
3.9499923e-05
1.8914875e-05
1.4890721e-05
1.2336726e-05
1.0968939e-05
1.2819454e-05
6.8365007e-05
0.00083029539
5.1622223e-05
2.852443e-05
2.4736262e-05
2.1071152e-05
1.8175472e-05
1.5859201e-05
1.6111501e-05
2.4898003e-05
3.1077251e-05
0.00012431107
0.00049924706
0.0010171271
0.000955101
0.0007946574
0.00013604438
7.7364051e-05
8.4982244e-05
8.1519176e-05
7.1671479e-05
5.88238e-05
4.5836645e-05
3.477828e-05
3.0291708e-05
4.6488666e-05
8.1406409e-05
0.00012809099
0.00033562177
0.00080338479
0.00075522058
0.00063763225
0.00033818587
0.00017117937
0.00023228358
0.00025633591
0.00024219998
0.00020268016
0.00015479771
0.00011163754
7.8589829e-05
5.5080199e-05
4.5297499e-05
5.8185207e-05
0.00011800719
0.00017675969
0.00032579756
0.00059478175
0.00063222017
0.00074975802
0.00058769378
0.00023554576
0.00031084347
0.00054766164
0.00061895429
0.00058234925
0.00047616521
0.00035450043
0.00024862895
0.00016847039
0.00011228935
7.480182e-05
5.7398516e-05
6.2221434e-05
0.0001244995
0.00020669181
0.00030296151
0.00041807318
0.00050552079
0.00069686855
0.000634563
0.00032004498
0.00010321083
0.00072393607
0.00097511645
0.0010834915
0.00098342229
0.00079564089
0.00060079912
0.00043244024
0.00030113202
0.00020284148
0.00013338675
8.7632425e-05
6.424202e-05
5.9155193e-05
0.00011372592
0.00019488212
0.00023790489
0.00028676133
0.00040098554
0.00056896865
0.00056519557
0.00035423524
0.00012621906
5.5466047e-05
0.0010992391
0.0013503992
0.0012759841
0.0010406262
0.0007929984
0.00058383121
0.00041710772
0.00029179645
0.00019958068
0.00013389985
8.9765135e-05
6.5013555e-05
5.3451998e-05
9.3478677e-05
0.00015521751
0.00016746013
0.00020552563
0.00031560215
0.00043621673
0.00044706025
0.00032246647
0.00013286936
4.0344685e-05
4.9909285e-05
0.00090904041
0.0014635931
0.0013255026
0.0010733378
0.00082937085
0.00062449651
0.0004611563
0.00033516178
0.00024015827
0.00016955465
0.00011828601
8.2640334e-05
6.0582738e-05
4.7227037e-05
7.1640993e-05
0.00011168032
0.00011555592
0.00015663421
0.00024303349
0.00031969832
0.00032773869
0.00025223387
0.00012009742
4.1691155e-05
2.1238383e-05
0.0019648169
0.0017830213
0.0013632496
0.00096805782
0.00066434076
0.00045868333
0.00032584119
0.00023757969
0.00017524048
0.00012939106
9.550272e-05
7.0686717e-05
5.2886983e-05
4.2844723e-05
5.4739021e-05
7.7485576e-05
8.4725094e-05
0.00012272753
0.00018063076
0.00022478697
0.0002274077
0.00017837461
9.5529157e-05
3.8955244e-05
1.5255784e-05
3.8412709e-05
0.0023792637
0.001329291
0.0011130272
0.00094697698
0.00075713787
0.00055382578
0.00037986844
0.00025648938
0.00017753317
0.00012863726
9.7507084e-05
7.6766463e-05
6.0364396e-05
4.5132694e-05
4.141805e-05
4.6742822e-05
5.565357e-05
6.6303982e-05
9.5246938e-05
0.00012969888
0.00015301805
0.00015132034
0.00011849419
6.9873891e-05
3.3850182e-05
1.2393069e-05
1.3893238e-05
0.0013824562
0.00084886081
0.00060796447
0.00053059878
0.00048567099
0.00041140609
0.00031416881
0.00022207896
0.00015216319
0.00010729998
8.4716745e-05
7.3871708e-05
6.0733165e-05
4.1688746e-05
4.0146206e-05
4.4613074e-05
4.4278162e-05
5.3449609e-05
7.2153411e-05
9.0479799e-05
0.00010097724
9.7016846e-05
7.6711709e-05
4.9204106e-05
2.7764758e-05
1.0653392e-05
9.9888879e-06
0.0009498293
0.00049240242
0.0003460925
0.00029080787
0.00027464477
0.00025552531
0.00021553273
0.00016373368
0.00011795638
9.5429708e-05
9.5117338e-05
9.2146395e-05
6.9813937e-05
3.9702402e-05
3.3519174e-05
3.90691e-05
3.5908062e-05
4.2801667e-05
5.3904857e-05
6.2654118e-05
6.6147028e-05
6.1853119e-05
4.9898595e-05
3.4900142e-05
2.2090164e-05
9.4755013e-06
7.8490277e-06
6.9457801e-05
0.00058567699
0.00021085942
0.00018530118
0.00017256763
0.00015462223
0.00013419567
0.00010763331
8.0967159e-05
7.3393736e-05
9.0411112e-05
0.000107636
9.7001705e-05
6.9579372e-05
3.1099168e-05
2.083144e-05
2.8786309e-05
3.1486061e-05
3.7584433e-05
4.3108252e-05
4.6637425e-05
4.7809603e-05
4.575568e-05
4.0632732e-05
3.3480898e-05
2.451033e-05
1.2292281e-05
7.5952306e-06
2.1199156e-05
7.0782523e-05
6.7527741e-05
8.971048e-05
9.189914e-05
8.5154162e-05
7.4501814e-05
6.2543783e-05
5.5439662e-05
5.8938785e-05
7.0351576e-05
7.7522305e-05
6.6710636e-05
5.0415816e-05
6.4342594e-05
9.8853526e-06
3.0603019e-05
4.149281e-05
4.4712799e-05
4.2712515e-05
4.1162482e-05
4.2728307e-05
4.6715409e-05
5.1320299e-05
5.2838937e-05
5.097646e-05
3.4121273e-05
1.4134656e-05
1.074992e-05
1.3630383e-05
2.9019742e-05
4.4747684e-05
5.9814803e-05
7.2062313e-05
7.8154256e-05
7.794754e-05
7.2934649e-05
6.5521118e-05
5.6952626e-05
4.7447488e-05
3.8283554e-05
3.0896635e-05
2.9563981e-05
2.0237983e-05
2.5004728e-05
3.2724425e-05
3.9644004e-05
4.3285078e-05
5.1908485e-05
6.749879e-05
8.6157347e-05
0.00010221019
0.00010996905
9.6835129e-05
5.1949088e-05
2.4608948e-05
1.2906606e-05
1.6452588e-05
1.7351971e-05
3.8892899e-05
6.4860359e-05
9.1697385e-05
0.00010962469
0.00011357028
0.00010574871
9.0706408e-05
7.2327878e-05
5.5216365e-05
4.8365322e-05
6.3371256e-05
7.5563491e-05
6.4093497e-05
3.7999346e-05
3.0709422e-05
4.0463892e-05
5.3238806e-05
7.3824417e-05
0.00010476051
0.00013945115
0.00016200238
0.00015710899
0.00012687785
0.00010430177
0.00010613119
0.0002555982
2.1865509e-05
1.7692422e-05
4.8918906e-05
9.3278551e-05
0.0001428226
0.00017480842
0.00017787048
0.00015880075
0.00012870382
9.7495179e-05
7.4614743e-05
6.5421783e-05
8.2892211e-05
0.00010647496
9.1124007e-05
5.4658912e-05
4.4163202e-05
5.3955287e-05
6.5982134e-05
8.544986e-05
0.00012374567
0.00018199208
0.00024094181
0.00026903111
0.00026435648
0.00030426976
0.00023493077
4.6956929e-05
2.0869041e-05
6.1552663e-05
0.00013381504
0.0002194774
0.00027281952
0.00027311867
0.0002349071
0.00017994022
0.00012960392
9.9334639e-05
8.3970492e-05
8.4182574e-05
0.00010264895
8.8026745e-05
5.815714e-05
5.7759654e-05
7.4186692e-05
9.2356208e-05
0.00011396031
0.00015212521
0.0002239366
0.00033162229
0.00044026129
0.00051799302
0.00064159372
0.00073919188
2.5010682e-05
7.0830901e-05
0.00018007154
0.00032430047
0.00040612081
0.00040466842
0.00033903951
0.00024791029
0.00017549185
0.00014004971
0.00011757553
8.9334617e-05
7.7723198e-05
6.7497369e-05
5.594297e-05
6.9001866e-05
9.7500092e-05
0.00013352387
0.00017478904
0.00022258658
0.00029277389
0.00041674662
0.00060991403
0.00084992901
0.0010465129
0.00071638129
2.2103469e-05
7.4064522e-05
0.00021886006
0.00044744956
0.00057972356
0.00058058063
0.00047672925
0.00033955049
0.00024803725
0.00020746826
0.00016960958
0.00011369223
6.3291035e-05
4.9215999e-05
5.4344588e-05
7.6784275e-05
0.00011723297
0.0001755473
0.00025148032
0.00033846705
0.00042777105
0.0005165633
0.00060753384
0.00068340891
0.00063596491
0.0012765339
0.00012248245
6.7257577e-05
0.00023194333
0.00055632289
0.00078151123
0.00079975292
0.00064992485
0.00047018927
0.00036730254
0.00030831041
0.00023302242
0.00014654534
7.349733e-05
4.465422e-05
5.4100384e-05
7.8946852e-05
0.00012630768
0.0001997533
0.00030099279
0.00042860317
0.00057158418
0.00069815564
0.00072751943
0.00056674077
0.00041895217
4.5183372e-05
0.00020853207
0.00059165229
0.00097558037
0.0010548095
0.00085369996
0.00066777546
0.0005518747
0.00043492564
0.00029275515
0.00017303216
9.3508133e-05
5.1962392e-05
5.3323739e-05
7.2807649e-05
0.00011718438
0.0001892049
0.00028952534
0.00041244899
0.00053506308
0.00060872406
0.00055334561
0.00036993028
0.00010427747
0.00051431422
0.0010737547
0.0012837973
0.0010812238
0.00096427035
0.00079515728
0.00055717528
0.00033417658
0.00019321108
0.00011245668
6.1367635e-05
5.0397314e-05
5.799204e-05
8.764327e-05
0.00013957436
0.00020871806
0.00027728526
0.00030838081
0.00027099073
0.00022154768
0.00020464148
0.00022831475
0.00094733191
0.0013329861
0.0012928877
0.0013648282
0.0010518889
0.00064422042
0.00036657063
0.00022013092
0.00013177033
6.6867093e-05
4.4256656e-05
3.9890176e-05
5.035825e-05
7.0500485e-05
9.1401258e-05
0.00010286294
9.747209e-05
8.0642396e-05
8.6416096e-05
0.00049700028
0.0010382878
0.0013841096
0.0017999658
0.0012737279
0.00072504556
0.00043373885
0.00025787719
0.00013413753
6.33011e-05
3.4051847e-05
2.5241035e-05
2.6645532e-05
3.0403487e-05
3.2098698e-05
3.0641289e-05
3.1030322e-05
6.288772e-05
0.00028491903
0.00085785065
0.0019674361
0.0014454668
0.0009333309
0.00059191839
0.00030826196
0.00010768054
3.626791e-05
1.8377158e-05
1.0591781e-05
1.0606338e-05
1.2689865e-05
1.4229473e-05
2.2729135e-05
0.001244016
0.0014238727
0.0012646918
0.00082226016
0.00046452482
0.00017859653
2.3473313e-05
1.5081151e-05
8.078127e-06
1.0257796e-05
1.9011798e-05
7.3018386e-05
0.0014281676
0.0007756876
0.00033765846
5.5358241e-05
1.319045e-05
0.00011100038
4.0940433e-05
1.9778215e-05
1.4050689e-05
1.1508077e-05
1.1932804e-05
3.596917e-05
0.00023597495
0.0014312456
5.6385528e-05
4.117571e-05
3.747978e-05
3.2440346e-05
2.6936077e-05
2.0962626e-05
1.6358395e-05
1.7105734e-05
2.829813e-05
0.00016609776
0.00068950406
0.0015446143
0.0016791249
0.0016836326
0.00018766182
0.0001228323
0.00014079719
0.00013445602
0.00011489813
8.9372292e-05
6.5178663e-05
4.4873996e-05
3.0378089e-05
2.7923087e-05
3.2571827e-05
6.3967347e-05
0.00030604771
0.0010667232
0.0012323544
0.0010678805
0.0006947089
0.00026052673
0.00037806353
0.0004149035
0.00038229999
0.00030641606
0.00022366971
0.00015404199
0.00010272129
6.6883975e-05
4.4822961e-05
4.0051926e-05
5.7961065e-05
9.1598659e-05
0.00025474084
0.00076019023
0.00099413773
0.0011429897
0.00092192632
0.00042876356
0.0005765401
0.0008466898
0.00092575849
0.0008452622
0.00067339934
0.00048922912
0.00033340489
0.0002177517
0.00013863515
8.6756519e-05
5.7492849e-05
4.9702283e-05
7.8259982e-05
0.00014457322
0.00029673429
0.00056435332
0.00076519458
0.001022932
0.00094228518
0.00051908013
0.00016151104
0.0014880459
0.001480975
0.0015492309
0.0013845032
0.0011049708
0.00082063422
0.00057892729
0.00039291468
0.00025672515
0.00016272143
0.00010128533
6.674193e-05
5.4438018e-05
8.5370384e-05
0.00017821278
0.00028951592
0.00041377122
0.00058668272
0.00082051412
0.00082531292
0.00055774251
0.00021644755
7.8304471e-05
0.0017525226
0.0019673811
0.0017947905
0.0014441983
0.0010885341
0.00079251402
0.00055918163
0.00038413691
0.0002565554
0.00016655561
0.0001061438
7.090267e-05
5.5085674e-05
8.2484299e-05
0.00017125952
0.00022894094
0.00030149193
0.00044975064
0.00061892681
0.00064508075
0.00049198211
0.0002286532
6.6188298e-05
6.4062587e-05
0.0016721011
0.0022082234
0.001960371
0.0015503833
0.0011718647
0.0008676274
0.00063475511
0.0004572828
0.00032309225
0.00022307068
0.00015044134
0.00010011273
6.929333e-05
5.2846061e-05
7.3531375e-05
0.00013766842
0.0001620428
0.00022423221
0.00033980653
0.00044623287
0.00046470302
0.000374326
0.00020067248
7.3801908e-05
2.9932901e-05
0.0028771016
0.0024054327
0.0018024015
0.0013002837
0.00092110169
0.00064998994
0.00046225426
0.00033205858
0.00023926005
0.00017153575
0.00012201993
8.6679739e-05
6.3202455e-05
5.0418104e-05
6.3618547e-05
0.00010037747
0.00011477167
0.00016974897
0.00024833524
0.00030720058
0.00031335911
0.00025668022
0.00015257095
6.9292258e-05
2.2483367e-05
3.5196957e-05
0.0042643336
0.0018878169
0.0013607384
0.001091736
0.00090177654
0.00070318895
0.00050921591
0.00035228776
0.00024245536
0.00017135793
0.00012584747
9.594638e-05
7.4216641e-05
5.6372579e-05
4.985688e-05
5.8189125e-05
7.2264713e-05
8.6107539e-05
0.00012748637
0.00017387897
0.00020239884
0.00020036021
0.00016382334
0.00010643191
5.8374129e-05
2.0620274e-05
1.5595685e-05
0.0024895731
0.0011537912
0.0006576408
0.00051654267
0.00050131158
0.00046785324
0.00038356806
0.00028155208
0.00019503549
0.00013650811
0.00010527202
9.0258315e-05
7.5798606e-05
5.4824563e-05
4.9826849e-05
5.6439914e-05
5.6030899e-05
6.7427131e-05
9.313556e-05
0.00011667608
0.00012784876
0.00012218042
0.00010056481
7.130526e-05
4.5376721e-05
1.7960403e-05
1.1594805e-05
0.0015753622
0.00057817541
0.00028891324
0.00022938398
0.00023591614
0.00024486596
0.00022936971
0.00018951438
0.00014515486
0.00011951216
0.00011556556
0.00011050503
8.8631392e-05
5.5836256e-05
4.4485407e-05
5.0386845e-05
4.5473077e-05
5.3419328e-05
6.6816789e-05
7.6502148e-05
7.8833608e-05
7.2855113e-05
6.0970105e-05
4.7466102e-05
3.3864379e-05
1.5024972e-05
8.6748761e-06
6.1325043e-05
0.00085837607
0.00013374286
8.9349286e-05
0.00010330859
0.00011074443
0.00010773264
9.7227748e-05
8.3870552e-05
8.3853802e-05
0.00010410114
0.00012226483
0.00011332719
8.9654421e-05
5.2474442e-05
3.3025764e-05
3.9238775e-05
4.0871554e-05
4.6492229e-05
5.1338665e-05
5.3423243e-05
5.2294864e-05
4.81481e-05
4.1953425e-05
3.5076649e-05
2.6331389e-05
1.2368624e-05
7.2669088e-06
2.3559307e-05
9.8059448e-05
2.6913984e-05
4.1785535e-05
5.8824297e-05
6.6836926e-05
6.8130628e-05
6.4592815e-05
6.1845215e-05
6.5628996e-05
7.7125749e-05
8.6816779e-05
7.9827458e-05
7.0384547e-05
0.00017280626
1.7379637e-05
4.2203404e-05
5.3484382e-05
5.5017099e-05
5.0980789e-05
4.721956e-05
4.6162264e-05
4.5492081e-05
4.3687644e-05
3.8951834e-05
3.1072835e-05
1.5787404e-05
9.1443527e-06
1.5501497e-05
1.4089697e-05
1.8300198e-05
3.8644393e-05
5.7484222e-05
7.2923759e-05
8.2464574e-05
8.6304758e-05
8.4494622e-05
7.8222274e-05
6.9341497e-05
5.9326943e-05
5.0754689e-05
4.8512752e-05
6.7375706e-05
4.3197957e-05
3.7110453e-05
4.4197037e-05
5.1715808e-05
5.4765986e-05
6.0576098e-05
6.8987608e-05
7.4838234e-05
7.5241426e-05
6.6746905e-05
4.4372421e-05
2.006586e-05
1.2300307e-05
3.2730714e-05
1.4071357e-05
2.1695396e-05
5.4989707e-05
8.4936671e-05
0.00011260785
0.00013147397
0.00013722774
0.00013016189
0.00011337917
9.1234518e-05
7.0282275e-05
6.1805067e-05
8.0578669e-05
9.4503245e-05
8.1178482e-05
4.9405408e-05
3.9894268e-05
5.0766318e-05
6.6716312e-05
9.1567113e-05
0.00012178559
0.00014161484
0.00013288323
9.5002947e-05
5.9587562e-05
9.182839e-05
0.00015047012
0.00048613748
2.4162516e-05
2.8104038e-05
7.9327163e-05
0.00013446029
0.00018878045
0.00022232343
0.00022605626
0.00020477857
0.00016773876
0.00012620498
9.4318081e-05
8.1276567e-05
9.9846652e-05
0.00012131154
0.00010343539
6.563417e-05
5.520463e-05
6.6402915e-05
8.2994133e-05
0.00011332384
0.00016489136
0.00022123481
0.00024017012
0.00020097495
0.00018332983
0.00034296795
0.00040548228
4.8413263e-05
3.4128053e-05
0.00010495321
0.0002013451
0.00030098039
0.0003585629
0.00035703951
0.000311732
0.00024272363
0.00017398257
0.00012823673
0.0001049375
0.00010256682
0.00011562716
9.5793935e-05
6.7835996e-05
7.1599131e-05
9.3816054e-05
0.00012109159
0.00015862578
0.0002207067
0.00031327418
0.00041140141
0.00047119841
0.00053637295
0.00081921417
0.0011401813
3.7716858e-05
0.00012369862
0.00028144872
0.00045516014
0.0005470036
0.00053846382
0.00045713295
0.0003430731
0.00024362659
0.00018458821
0.00014695341
0.00010883934
8.883346e-05
7.2421435e-05
6.4635378e-05
8.5723064e-05
0.00012606632
0.0001790461
0.00024231079
0.00032051963
0.00043223323
0.00060107783
0.0008398071
0.0011586816
0.0015444888
0.0012111827
2.693305e-05
0.0001285106
0.00035533728
0.0006391852
0.00079247637
0.00078020418
0.00064630517
0.00047740229
0.00034956935
0.00027380343
0.00020802538
0.00013067047
6.8252198e-05
5.3192181e-05
6.2463937e-05
9.4721579e-05
0.00015239464
0.00023697546
0.00034564226
0.00047212286
0.00061464211
0.00077713797
0.00096311989
0.001124594
0.0010993653
0.0024834391
0.00011924064
0.00011027174
0.00038526145
0.00081152352
0.0010799118
0.0010824538
0.0008866006
0.0006632157
0.00050842411
0.000396138
0.0002749738
0.00015506644
6.8886127e-05
4.7235055e-05
6.1070429e-05
9.6773173e-05
0.00016522116
0.00027281601
0.00042050163
0.00060255045
0.00080785462
0.00099756206
0.0010851714
0.00095685723
0.00085248479
5.5649391e-05
0.00034591905
0.00088998525
0.001357957
0.0014353227
0.0011858625
0.00092862847
0.00072591251
0.00052925057
0.00032512094
0.00016809637
7.8032446e-05
4.9393685e-05
5.8646982e-05
9.0492206e-05
0.00015790538
0.00026709048
0.00041746561
0.00059935402
0.00077952229
0.0008918139
0.00085477105
0.00063621801
0.00016207834
0.00079913031
0.0015164464
0.0017675947
0.001544828
0.0013068303
0.0009839359
0.00063289745
0.00034454256
0.00017065839
8.4024435e-05
5.1243493e-05
5.4349058e-05
7.6471018e-05
0.00012730734
0.00021044298
0.00032139738
0.00043526171
0.00049867605
0.00045153166
0.00036559619
0.00039899295
0.00039170684
0.0014255132
0.0019074986
0.0019113954
0.0018186784
0.0012560097
0.00069758766
0.00035934876
0.0001668501
7.9757448e-05
4.7108154e-05
4.7024032e-05
5.8919448e-05
8.4217514e-05
0.00012156198
0.00016199856
0.0001864006
0.00017481155
0.00014029191
0.00013845366
0.00090716278
0.0016480271
0.0020935449
0.0024238095
0.0015644864
0.00082489058
0.00044353774
0.00016779354
5.8798306e-05
3.374097e-05
3.4932063e-05
4.1449227e-05
5.057755e-05
5.9169205e-05
6.1632636e-05
5.2924315e-05
4.7652412e-05
8.091894e-05
0.00075489941
0.0014679195
0.0028468795
0.0019956522
0.0012584526
0.00073250475
0.00026297396
5.450412e-05
1.5324823e-05
1.4728915e-05
1.6991851e-05
1.952686e-05
2.0581762e-05
2.2252146e-05
3.3469338e-05
0.0024281669
0.002159206
0.0019905885
0.0012816453
0.00062991863
0.00019372458
2.72345e-05
8.3956687e-06
8.6117852e-06
1.1637704e-05
2.0262152e-05
6.4887639e-05
0.0026268067
0.0012995681
0.00062456149
0.00018454253
1.8810837e-05
0.00011492373
4.2042032e-05
2.123597e-05
1.5167637e-05
1.304678e-05
1.5817798e-05
0.0001801194
0.00060666617
0.0023019194
7.5095485e-05
6.4019495e-05
6.0226463e-05
5.2119997e-05
4.3049884e-05
3.1905504e-05
2.2861792e-05
2.0895443e-05
5.4467082e-05
0.00029314957
0.0010253745
0.0022820637
0.0025457539
0.002975202
0.00027307031
0.00020378526
0.00023971803
0.00022643973
0.00018696149
0.00013989128
9.8408668e-05
6.5141536e-05
4.0421323e-05
2.6628154e-05
2.6451603e-05
5.0566226e-05
0.00033482453
0.0013567021
0.0017957309
0.0016415153
0.0012171828
0.00042134796
0.00060852299
0.00065839737
0.00059452849
0.00046697829
0.00033470125
0.00022583402
0.00014663133
9.2404849e-05
5.5479046e-05
3.6741714e-05
3.3919771e-05
5.1059666e-05
0.0001861842
0.00083280579
0.001370257
0.0016243477
0.0013637326
0.00071517019
0.00098526982
0.0012630091
0.0013472169
0.0012124974
0.00095861238
0.00069163708
0.00046635561
0.00029956081
0.00018574309
0.00011116683
6.5758917e-05
4.5444731e-05
4.978597e-05
8.7327369e-05
0.00023447731
0.00062162215
0.0010138307
0.0014092697
0.0013507318
0.00081132596
0.00028660626
0.0025978088
0.0021170558
0.0021390931
0.0018909059
0.0015037359
0.0011139539
0.00078064692
0.00052383982
0.00033451993
0.00020473351
0.00012103578
7.2274255e-05
5.1658107e-05
6.3416995e-05
0.000133599
0.0002840377
0.00049429747
0.00076543224
0.0011160806
0.0011746078
0.00085253875
0.00037117686
0.00012460086
0.0025838381
0.0026912526
0.0023876924
0.001897801
0.0014250914
0.0010358991
0.00072587208
0.00049059384
0.00031969778
0.00020056171
0.00012183976
7.53641e-05
5.4957779e-05
7.0926223e-05
0.00015680616
0.00026224159
0.00038010915
0.00058526921
0.0008399035
0.00091791026
0.00074558569
0.0003897847
0.00011748983
9.4654353e-05
0.0027708223
0.0030778491
0.0026174999
0.0020093314
0.0014955893
0.0011000463
0.00080204081
0.00057454925
0.0004007845
0.00027108322
0.00017754158
0.00011348466
7.4532493e-05
5.6261684e-05
7.2690169e-05
0.00014563549
0.00020024522
0.00028631428
0.00044058148
0.00060324787
0.00066151972
0.00056603084
0.00033665287
0.00013567792
4.5498908e-05
0.003989068
0.0030350535
0.0021497815
0.0015365743
0.001108145
0.00079735144
0.00057276724
0.00041120607
0.00029333314
0.00020648725
0.00014310855
9.8574588e-05
7.02609e-05
5.7292782e-05
7.1431486e-05
0.00011577444
0.00014372551
0.00021448235
0.00031858513
0.00041076674
0.00044458352
0.00038685217
0.00025279812
0.00012584399
3.7190002e-05
4.1074891e-05
0.0064977878
0.0025997326
0.0015904592
0.0011001961
0.00091934713
0.00077228008
0.00059225716
0.00042283901
0.00029436822
0.00020718451
0.00015001163
0.00011233238
8.589286e-05
6.6029062e-05
5.9811243e-05
7.1202313e-05
8.7194785e-05
0.0001058894
0.00015773138
0.00021848166
0.00026415827
0.00027869776
0.00024493953
0.00017432103
0.00010263527
3.5685887e-05
1.9027598e-05
0.003847206
0.0015140299
0.000644803
0.00040424043
0.00041604388
0.00044575643
0.00040664039
0.00031777369
0.00022671731
0.00016107366
0.00012479058
0.00010639389
8.9642483e-05
6.753561e-05
6.2026384e-05
7.0634785e-05
6.8441038e-05
8.0973778e-05
0.00011190716
0.00014182964
0.00016071614
0.00016431741
0.00014816736
0.00011496425
7.730933e-05
3.1478894e-05
1.5020158e-05
0.0024356343
0.00069829927
0.00020331608
0.00012319218
0.00015157003
0.00018924642
0.00020496205
0.00018957214
0.00015975834
0.00013996936
0.00013465594
0.0001264448
0.00010369417
7.0509292e-05
5.7687056e-05
6.3418956e-05
5.6258155e-05
6.3308488e-05
7.7640287e-05
8.8852876e-05
9.3944456e-05