/*--------------------------------*- C++ -*----------------------------------*\
| =========                 |                                                 |
| \\      /  F ield         | OpenFOAM: The Open Source CFD Toolbox           |
|  \\    /   O peration     | Version:  2406                                  |
|   \\  /    A nd           | Website:  www.openfoam.com                      |
|    \\/     M anipulation  |                                                 |
\*---------------------------------------------------------------------------*/
FoamFile
{
    version     2.0;
    format      ascii;
    arch        "LSB;label=32;scalar=64";
    class       volScalarField;
    location    "300";
    object      k;
}
// * * * * * * * * * * * * * * * * * * * * * * * * * * * * * * * * * * * * * //

dimensions      [0 2 -2 0 0 0 0];

internalField   nonuniform List<scalar> 
150387
(
0.0001178709
4.2344407e-05
3.2792767e-05
2.9745974e-05
2.322039e-05
7.562027e-05
0.00013202874
0.0001477785
0.00010683947
3.8233245e-05
3.191511e-05
3.0689473e-05
3.0542183e-05
3.1394996e-05
3.2637015e-05
3.4539832e-05
0.0001301877
0.00019932008
0.00021950961
0.00030439581
0.00016778803
3.975923e-05
3.8896785e-05
4.2873991e-05
4.6383259e-05
4.768837e-05
4.760592e-05
4.6839888e-05
4.6031378e-05
4.7861024e-05
0.00014566028
0.00016556856
0.00022871836
0.00038137408
0.00025511476
0.00015485488
4.3105948e-05
0.00012770247
7.2436908e-05
9.7505189e-05
0.00011526132
0.00011389702
0.00010252519
8.7301414e-05
7.3058163e-05
6.2591363e-05
5.6729971e-05
5.4842267e-05
0.00011454553
0.00015705133
0.00025920758
0.00032896415
0.0002153919
0.00028627763
0.0002416216
8.2027085e-05
0.00012073089
0.00013270675
0.00022059863
0.0002659513
0.00026195126
0.00022774775
0.00018149386
0.00013750427
0.00010287317
7.9017774e-05
6.4610545e-05
5.5030533e-05
9.7883002e-05
0.00016484869
0.00023971674
0.00023275953
0.00019328784
0.00032708922
0.00031955966
0.00017071457
5.3361072e-05
0.00021178791
0.00036868645
0.00044209679
0.00041732134
0.00035516853
0.00028409558
0.00021868901
0.00016456528
0.00012290219
9.2594244e-05
7.1211008e-05
5.2541875e-05
8.8591132e-05
0.00015049333
0.00018686933
0.00015797889
0.0001985323
0.00031017532
0.00034285486
0.00022692621
8.1939146e-05
4.0476199e-05
0.00014239251
0.00038144599
0.00047934462
0.00047939348
0.00042831326
0.00035778907
0.00028554917
0.00021969438
0.00016501632
0.00012384589
9.4101712e-05
7.1769863e-05
4.9908019e-05
7.4693007e-05
0.00012134181
0.0001340094
0.00012639453
0.00019458669
0.00027153741
0.00030716219
0.00023704551
0.00011226414
3.58729e-05
5.0966417e-05
9.9580722e-05
0.00029961084
0.00038042325
0.00042375677
0.00041002404
0.00036157713
0.00030027668
0.00024054965
0.00018691952
0.00014488366
0.00011161594
8.6516736e-05
6.6360092e-05
4.6023595e-05
6.0869739e-05
9.182288e-05
9.6696612e-05
0.0001125129
0.00017332898
0.00022629994
0.00025209491
0.00021146929
0.00011735397
4.1916709e-05
2.5818805e-05
0.00035041262
0.00061169079
0.00053809476
0.00040272958
0.00030819358
0.00025316489
0.00021193597
0.00017664959
0.00014212819
0.00011338135
9.0910903e-05
7.3271508e-05
5.7353503e-05
4.2752477e-05
5.0301111e-05
6.8981308e-05
7.5183851e-05
0.00010003479
0.00014468251
0.00018144843
0.00019613423
0.00017199753
0.00010437919
4.5816327e-05
2.3881467e-05
4.1095224e-05
0.00038378514
0.00059426567
0.00060260862
0.00049131477
0.00035677315
0.0002472667
0.0001765239
0.00013334075
0.0001051807
8.5577562e-05
7.1553599e-05
6.037377e-05
4.7964832e-05
4.1373251e-05
4.5012292e-05
5.4003017e-05
6.2704482e-05
8.5764142e-05
0.00011672911
0.00014082569
0.00014774013
0.0001322363
8.5213221e-05
4.5602658e-05
2.3471485e-05
2.5056895e-05
0.00021016902
0.00033373277
0.00032193008
0.00039580917
0.00039412062
0.00033050574
0.00024835564
0.00017484555
0.00012248375
8.9974309e-05
7.2441686e-05
6.4271494e-05
5.4380988e-05
4.0973944e-05
4.0050603e-05
4.6240148e-05
4.6080033e-05
5.3984835e-05
7.2053774e-05
9.302638e-05
0.00010776343
0.00011047709
9.8935823e-05
6.7851053e-05
4.3579099e-05
2.473649e-05
2.2602307e-05
0.00022801468
0.00030643227
0.00023190452
0.00021833401
0.00024027083
0.00022718259
0.00018495025
0.00013760906
9.9207676e-05
7.6336805e-05
7.3083908e-05
7.2761953e-05
5.8468276e-05
3.5598798e-05
3.305958e-05
4.3034964e-05
4.0527144e-05
4.6486978e-05
5.9926725e-05
7.3886747e-05
8.2778358e-05
8.3812269e-05
7.4986995e-05
5.6570744e-05
4.2173968e-05
2.7059695e-05
2.0428349e-05
3.3818744e-05
0.00021028693
0.00019298821
0.00016915442
0.00013970369
0.00013240371
0.00012857466
0.00010986172
8.5521465e-05
6.7360656e-05
7.1764317e-05
9.276865e-05
9.4690429e-05
5.7185791e-05
2.1534017e-05
2.2548648e-05
3.0993635e-05
3.286231e-05
3.9393029e-05
4.8855231e-05
5.7697031e-05
6.3811946e-05
6.5090869e-05
6.0441186e-05
5.2383535e-05
4.443907e-05
3.1409801e-05
2.1151416e-05
1.8275326e-05
0.00015826786
0.00015244001
0.00011854157
9.6660954e-05
8.5190708e-05
7.6361636e-05
6.5397604e-05
5.3407024e-05
5.3184734e-05
7.1028592e-05
8.7166022e-05
7.7470752e-05
3.701728e-05
8.6931406e-06
1.2586075e-05
2.6451671e-05
3.7188222e-05
4.4234164e-05
4.6174882e-05
4.5347831e-05
4.4961521e-05
4.4783615e-05
4.5737025e-05
4.8380282e-05
5.3922376e-05
5.6713371e-05
4.5249114e-05
1.6590107e-05
7.7166443e-05
9.1521823e-05
7.094645e-05
5.9236641e-05
5.9070879e-05
6.1232132e-05
6.3587652e-05
6.2811523e-05
5.8821945e-05
5.5457479e-05
5.082272e-05
4.1236311e-05
2.6387102e-05
1.453655e-05
1.635017e-05
2.3766887e-05
3.3361399e-05
4.0565251e-05
4.0742962e-05
4.2265402e-05
5.0314279e-05
6.2956036e-05
7.5713795e-05
8.4162792e-05
9.7161561e-05
0.00011316573
9.0129817e-05
6.8534415e-05
2.2834761e-05
2.9971325e-05
4.516659e-05
6.0944767e-05
7.5908869e-05
8.9830757e-05
9.4139883e-05
8.9947792e-05
7.9507958e-05
6.5486799e-05
5.1771523e-05
4.1304745e-05
3.7658952e-05
4.7128578e-05
4.4787987e-05
3.2976793e-05
3.0273432e-05
3.8559485e-05
4.6580412e-05
5.8202612e-05
7.6624314e-05
0.00010060434
0.00012155013
0.00012721944
0.00013005627
0.00015904228
0.00014299329
8.5794606e-05
2.3464262e-05
2.9054206e-05
4.3081492e-05
6.8449157e-05
9.9383545e-05
0.00012334878
0.00012868277
0.00012076428
0.00010341435
8.2451937e-05
6.4337282e-05
5.3098503e-05
5.6610425e-05
8.622652e-05
9.0693177e-05
5.6220766e-05
4.1418688e-05
4.999324e-05
5.9231771e-05
6.9609694e-05
8.8762563e-05
0.00012443656
0.00016758372
0.00019407434
0.00018602907
0.00018903326
0.00023892962
0.00012811994
5.4576534e-05
2.9128314e-05
4.0992332e-05
8.1942481e-05
0.00013734354
0.00017014348
0.0001759636
0.00016013243
0.00013148585
0.00010072822
7.8164487e-05
6.5119954e-05
6.3613688e-05
9.1931801e-05
0.00010194576
6.6189036e-05
5.4297876e-05
6.6840304e-05
7.9393262e-05
8.9321402e-05
9.8003936e-05
0.0001219995
0.00017990935
0.00025461383
0.00028870427
0.00025349918
0.00023800859
3.2376542e-05
3.9151986e-05
9.5681355e-05
0.00018507023
0.00023106703
0.00023848653
0.000210056
0.00016586005
0.00012209541
9.7900567e-05
8.5023457e-05
6.8509553e-05
6.909012e-05
8.2476528e-05
6.4819062e-05
6.6714742e-05
8.5866237e-05
0.00010596275
0.0001254918
0.00013890305
0.00014083067
0.00015420991
0.00023227531
0.00034763251
0.00038910668
0.00023634878
4.3848412e-05
3.6818837e-05
0.00010391324
0.00023171004
0.00030462935
0.00031355375
0.00027143167
0.00020486934
0.00014875203
0.00013179251
0.00011859183
8.7744739e-05
6.0410149e-05
5.2870302e-05
6.0001655e-05
7.6979769e-05
0.00010239712
0.00013139635
0.00016542305
0.00020096542
0.0002260308
0.00022055119
0.00018976735
0.00019964587
0.00022584197
8.6269814e-05
3.6999757e-05
9.8884862e-05
0.00025738699
0.00038167074
0.00039507664
0.00034027332
0.00024257284
0.00018975351
0.00019043017
0.00016691422
0.00011776733
7.3764034e-05
4.624095e-05
5.7105059e-05
8.3170567e-05
0.00011215852
0.00014874091
0.00019512325
0.000249247
0.000304483
0.00034532265
0.00034200731
0.00024415329
6.3330665e-05
6.6625856e-05
7.6110001e-05
0.00024205505
0.00044159429
0.00046971312
0.00040439184
0.00027774311
0.00026543201
0.00027490347
0.00022284914
0.00014834577
9.0728452e-05
5.6753599e-05
5.3861952e-05
8.325511e-05
0.00011150713
0.00015002127
0.00020300769
0.00026682367
0.00032729588
0.0003525318
0.00029890567
0.00019080877
5.4994137e-05
6.9472852e-05
0.00017491806
0.00043502993
0.00050879881
0.00044074563
0.0003293865
0.00038958061
0.00036817944
0.00026670435
0.00016398362
9.9171696e-05
6.7361693e-05
5.0043457e-05
7.5614985e-05
9.7544785e-05
0.00012920531
0.0001690244
0.00020834046
0.0002260866
0.00019847009
0.00012125303
5.7204098e-05
9.3772842e-05
0.0003103734
0.00047044594
0.00041535182
0.00043106189
0.00054064652
0.00043395004
0.00027031833
0.00015639357
0.00010325906
7.5419466e-05
4.8065491e-05
6.124777e-05
6.6045048e-05
7.9858084e-05
9.6345949e-05
0.0001036338
8.8371234e-05
5.6793586e-05
4.662813e-05
0.00013147343
0.00029673905
0.00032646674
0.00056995054
0.00064412227
0.00041683353
0.00023542398
0.00016913789
0.00012502275
8.7755025e-05
5.1840233e-05
4.7660378e-05
4.2433737e-05
4.0767227e-05
3.7629834e-05
3.2567354e-05
3.2553175e-05
4.8315659e-05
3.904305e-05
0.00023296601
0.00056465625
0.00056697499
0.00031885635
0.00027381064
0.00021956256
0.00015597145
0.00011199929
5.8389155e-05
2.8926198e-05
2.3626571e-05
2.1314099e-05
2.1344003e-05
2.7600887e-05
6.7404908e-05
0.00010427112
0.00025685321
0.00036946109
0.00037457009
0.00023230438
0.000176172
0.00011115647
5.3478836e-05
1.9008639e-05
1.9879504e-05
2.2892852e-05
4.375971e-05
0.00012889118
0.0001472344
0.00012781921
8.2606345e-05
5.1615943e-05
1.8222686e-05
6.2497875e-05
5.0254551e-05
3.7558023e-05
3.0785677e-05
2.8408071e-05
2.5657697e-05
2.3585823e-05
8.388026e-05
0.00032107919
5.7268854e-05
5.1225297e-05
5.1210252e-05
4.8812467e-05
4.5759808e-05
4.2602753e-05
4.4401172e-05
4.8147492e-05
4.9095798e-05
0.00012165836
0.00031864343
0.00058961104
0.00033317402
0.00021169644
7.0262675e-05
9.3980925e-05
0.00011436432
0.00012206677
0.00012008965
0.00011054685
9.6841297e-05
8.1959546e-05
7.861226e-05
7.7220421e-05
0.0001012825
0.00014225504
0.00031204404
0.00062898782
0.00054786571
0.00039111425
0.00021877542
9.6625016e-05
0.00020690403
0.00025996741
0.0002764909
0.0002611483
0.00022704412
0.00018767147
0.00015150988
0.00012096563
0.0001093222
9.4536986e-05
0.00013565934
0.00020123351
0.00036026521
0.00057743472
0.00056708404
0.00058535926
0.00042107776
0.00015563856
0.00014470621
0.000400589
0.00051501378
0.00054349391
0.00050225142
0.00042680638
0.00034424142
0.00026926241
0.00020717721
0.00015843958
0.00013350027
0.00010295237
0.00014741921
0.00025455247
0.00037706972
0.00048324
0.00052955914
0.00063524525
0.00053380211
0.00027342623
8.0054654e-05
0.00021522325
0.00059864354
0.00077737845
0.00080736547
0.00074400262
0.00063974803
0.00052528671
0.00041804231
0.00032318208
0.00024454426
0.00018400087
0.00014741752
0.0001034997
0.00014215732
0.00026316392
0.00033511783
0.0003855024
0.00047556484
0.00059306021
0.00054449331
0.00034482333
0.00013299039
4.7670077e-05
0.00057191837
0.00088680024
0.00097718327
0.00091355324
0.00079161334
0.00065997233
0.00053413624
0.00042366668
0.00032908283
0.00025084491
0.00019000755
0.00014861315
9.8267047e-05
0.00012396463
0.000230393
0.00026556513
0.00031051667
0.00041797224
0.00051546542
0.00049166738
0.00035365475
0.0001603936
5.9382112e-05
4.2894473e-05
0.00038907027
0.00090104052
0.00098835932
0.00092863367
0.00081459859
0.00068951693
0.00057042426
0.00046381521
0.00037126402
0.00029264481
0.00022772097
0.00017625365
0.0001370521
8.9140779e-05
0.00010112994
0.00018055263
0.00020214006
0.000258945
0.00035822411
0.00042804898
0.00041269961
0.00031535626
0.00016503853
6.9012659e-05
3.2659226e-05
0.00099470745
0.0011792389
0.0010987523
0.00091906777
0.00072837059
0.00056945642
0.00044884749
0.00035813491
0.0002872548
0.00023051513
0.00018504033
0.00014811865
0.00011561476
7.9681393e-05
8.2499611e-05
0.00013368474
0.00015727926
0.00021967669
0.00029733042
0.0003427529
0.00032964978
0.00025786106
0.00015049484
7.2329551e-05
3.2719308e-05
4.2691063e-05
0.00044901166
0.00071865811
0.00083246562
0.00085355681
0.00078397356
0.00065122191
0.00050376225
0.0003765701
0.0002815009
0.00021528192
0.00017088556
0.00014155046
0.00011795288
9.1722377e-05
7.4973408e-05
7.5436899e-05
0.00010059534
0.0001287129
0.00018519812
0.000239664
0.00026712101
0.00025414963
0.00020035004
0.00012743584
7.0748481e-05
3.2158775e-05
3.0128093e-05
0.00054333037
0.00052970569
0.00049030471
0.00051650896
0.00053877474
0.00050598418
0.00042357026
0.00032408935
0.00023551346
0.00017209934
0.0001397365
0.00012871021
0.00011287253
8.039519e-05
7.3415156e-05
7.7282134e-05
8.2541678e-05
0.00010973581
0.00015363677
0.00018863403
0.00020301475
0.00019031908
0.00015229525
0.00010411065
6.5180757e-05
3.0443921e-05
2.3598234e-05
0.00034206885
0.00036685725
0.00031551851
0.00030333042
0.00031744872
0.00031910729
0.00028660845
0.00022983501
0.00017293176
0.00014819401
0.00016357285
0.00017108766
0.00013913395
8.2395726e-05
6.4669749e-05
7.2722678e-05
7.0483585e-05
9.4419597e-05
0.00012627279
0.0001477556
0.00015405301
0.00014290509
0.0001170759
8.595585e-05
5.8535127e-05
2.9185038e-05
2.1555523e-05
4.0098429e-05
0.00031120373
0.0001897483
0.0001881716
0.00018265193
0.00016978374
0.00015321922
0.00012867563
0.00010190707
0.00010271106
0.00014959061
0.00019728691
0.00018898077
0.00014757871
7.8163089e-05
4.3437886e-05
5.5929091e-05
6.4356387e-05
8.5422316e-05
0.00010584292
0.00011944578
0.00012461389
0.00012013083
0.00010767599
8.9934994e-05
6.7872948e-05
3.4876501e-05
2.18604e-05
2.9774254e-05
6.3451759e-05
7.9766207e-05
0.00010261329
0.00010416977
0.00010228469
9.9896336e-05
9.5419022e-05
9.2691383e-05
0.00010379488
0.00012853244
0.00014453569
0.00012571813
0.00010293315
3.2067981e-05
1.902471e-05
6.1742528e-05
8.3594146e-05
9.1422754e-05
8.931659e-05
8.6931859e-05
8.7651683e-05
8.9149169e-05
8.8619278e-05
8.3486039e-05
7.4777024e-05
4.9812127e-05
2.5445806e-05
1.9820752e-05
2.5166048e-05
4.599808e-05
7.673633e-05
0.00010920226
0.00013827378
0.00015699384
0.00016231649
0.00015496036
0.00013806115
0.0001155988
9.0031246e-05
6.7482636e-05
5.6245607e-05
5.2825058e-05
5.0419274e-05
4.7365906e-05
5.9339905e-05
6.9130932e-05
7.1489987e-05
8.086744e-05
9.881228e-05
0.00011788474
0.00013092387
0.0001330813
0.00011769278
6.9984066e-05
3.7462118e-05
2.1757685e-05
3.1210073e-05
4.1994106e-05
8.5498278e-05
0.00013011035
0.00017538488
0.00020796884
0.00021900913
0.00020870367
0.00018135533
0.00014247689
0.00010205639
8.25976e-05
0.00011781898
0.00015750221
0.00013291313
7.2810842e-05
5.6107004e-05
7.2679393e-05
9.2687634e-05
0.00012465434
0.00016779245
0.00020640674
0.00021856496
0.00019407586
0.00014901159
0.00011388043
9.86371e-05
0.00013380273
4.0120514e-05
4.1523622e-05
9.4025533e-05
0.0001602099
0.00023286302
0.00028416296
0.00029800603
0.00027759599
0.00023318186
0.00017840966
0.00013074037
0.00010759099
0.00014766622
0.00021045283
0.00018431058
0.00011107074
8.999796e-05
0.00010581553
0.0001242414
0.00015523492
0.00020781779
0.00027348317
0.00031922043
0.0003115747
0.00026405572
0.00025054598
0.00020507486
4.9912827e-05
4.4801589e-05
0.00010576188
0.00020055482
0.00030899463
0.00038349658
0.00039922155
0.00036374047
0.00029552818
0.00022153463
0.00016741617
0.00013336341
0.00013763167
0.00019164849
0.00017715566
0.00012713636
0.00012623386
0.00015033823
0.0001743872
0.00020282506
0.00024859231
0.00032497033
0.00041827877
0.00047940455
0.00046994001
0.00041903697
0.0003580503
4.5796877e-05
0.00010852547
0.00023617615
0.00039517768
0.00049686284
0.00051837594
0.00046585088
0.00037012859
0.00028070791
0.0002260511
0.00018192541
0.0001329233
0.00012857046
0.00013622489
0.00013216052
0.00015444256
0.00019275997
0.00023618135
0.000280795
0.00032694449
0.0003879196
0.00048141365
0.00059538256
0.00067377642
0.00061922204
0.00037854969
4.374957e-05
0.00010213211
0.00025408964
0.00047653924
0.00061964032
0.00065417794
0.00058254614
0.00046086085
0.00036695751
0.00031374449
0.00025211561
0.00016263846
8.6712944e-05
9.6568889e-05
0.00013500121
0.00017042597
0.0002216181
0.00028808604
0.00036334896
0.00043569036
0.00049386949
0.00053162363
0.00054232309
0.00049997641
0.00038056596
0.00028314565
5.9967505e-05
8.4335951e-05
0.00023975915
0.00052403641
0.00073215873
0.00079473369
0.00070823669
0.00057657197
0.000491229
0.00042682101
0.00032720675
0.00020263728
9.2485562e-05
7.9651422e-05
0.00013534465
0.00017201455
0.00022828582
0.00030813525
0.00040259313
0.00050160082
0.00058758809
0.00062828736
0.00056519342
0.00035500387
0.00018027065
5.6761677e-05
0.00019051752
0.00049814511
0.0008018378
0.00092210306
0.00083053307
0.00072850888
0.00065301497
0.00054323708
0.00038260976
0.00022806627
0.00011266776
7.9887042e-05
0.00012951545
0.00015738032
0.00020599427
0.00028141686
0.00036968107
0.00045639279
0.0005162395
0.00051214409
0.00039994372
0.00026851903
7.6660553e-05
0.00038321305
0.00077253353
0.00098152108
0.0009317287
0.00091781444
0.00082568423
0.00062355122
0.00039857869
0.00023574073
0.00013036414
8.2423886e-05
0.00011566183
0.0001285251
0.00015631629
0.0002101465
0.00026920612
0.00031260851
0.00030967589
0.00024182591
0.00018603432
0.00010563842
0.00014281978
0.00058702577
0.00087812966
0.00096702765
0.0011089241
0.00095117177
0.00063423794
0.00038558464
0.00024090445
0.00014719183
8.364725e-05
9.4347899e-05
9.477394e-05
9.790376e-05
0.00011845754
0.00013309239
0.00013142191
0.00010950444
8.3219398e-05
6.127805e-05
0.00022231765
0.00054855776
0.00085908915
0.0012065815
0.00096439983
0.00059306085
0.00038758649
0.00025059813
0.00014842224
8.0076996e-05
6.7580653e-05
6.5209955e-05
5.7781894e-05
5.9626891e-05
5.6165558e-05
4.8169862e-05
3.964427e-05
4.7809872e-05
0.00013920375
0.00043630631
0.0010142976
0.00080486939
0.00057640932
0.00043082351
0.00025732192
0.00011886693
5.1649209e-05
3.3934986e-05
3.1113719e-05
2.8130032e-05
2.8994858e-05
2.5506904e-05
3.0868e-05
0.0004371126
0.00040444422
0.00056342032
0.00047065098
0.00030503534
0.00015624189
3.5909665e-05
2.3352494e-05
2.0908929e-05
2.407927e-05
3.3316224e-05
4.1150788e-05
0.00030060533
0.00032622006
0.00019524435
5.7622388e-05
1.8639801e-05
5.6541209e-05
4.975624e-05
3.8846639e-05
3.0571568e-05
2.8453856e-05
3.0655782e-05
4.7561785e-05
0.00018188773
0.00046136425
6.3221363e-05
6.7830694e-05
6.8592301e-05
6.529722e-05
5.9854611e-05
5.1462663e-05
4.6422193e-05
5.1679241e-05
5.6384205e-05
0.00015258182
0.00043496975
0.0008375387
0.00053622087
0.00036903722
8.5751027e-05
0.00013285311
0.00016893133
0.00017944775
0.0001718266
0.00015128034
0.00012603787
9.8893098e-05
7.9871697e-05
7.478174e-05
6.9265454e-05
9.7664045e-05
0.00030869241
0.00081809108
0.00085147219
0.00059653817
0.00034615483
0.00012700761
0.00029953112
0.00037555588
0.00039020937
0.00035588551
0.00029927367
0.00023973734
0.00018691243
0.00014169987
0.00011438011
9.9973802e-05
0.00010131426
0.00013346727
0.00031620649
0.00073448444
0.00086577245
0.00085432855
0.00060169922
0.00022868701
0.00021610781
0.00055450818
0.00070209311
0.0007250999
0.00065616506
0.00054653357
0.00043130436
0.00032906937
0.0002463314
0.00018163677
0.00014505512
0.00011960366
0.00012574527
0.00019880175
0.00038780701
0.00064793137
0.00078466127
0.00090186974
0.00074252378
0.0003914357
0.00011675986
0.000341936
0.00083405197
0.0010504648
0.0010800854
0.00098071563
0.00082790606
0.00066655514
0.00051946139
0.00039343841
0.00029177645
0.0002139451
0.00016846965
0.00013055898
0.0001406522
0.00025341078
0.00040832708
0.00054346486
0.00068035902
0.0008239671
0.00074743025
0.00048669092
0.00019906954
6.0355869e-05
0.00083834654
0.0012481791
0.0013425227
0.0012354138
0.001052677
0.00086315819
0.00068813859
0.00053754307
0.00041164392
0.00030919438
0.00022994751
0.00018044761
0.00013322911
0.00014040002
0.00026425356
0.00036049774
0.00044396033
0.00057785097
0.00069943187
0.00066391213
0.00048682748
0.00024090758
8.6740687e-05
5.0853874e-05
0.00060508841
0.0013252604
0.0014425993
0.0013261105
0.0011350349
0.00093884839
0.00076418722
0.00061445162
0.00048776821
0.00038132193
0.00029350091
0.00022458184
0.00017792633
0.00012886703
0.00012850247
0.00023601236
0.00028918739
0.00036434846
0.00048249039
0.0005674987
0.00054505547
0.00042367326
0.00024125691
0.00010708273
4.2747865e-05
0.0013882173
0.0015817135
0.0014590053
0.001235592
0.00099905514
0.00079083013
0.00062450758
0.00049613979
0.00039584254
0.00031564021
0.00025112949
0.00020029971
0.00016160143
0.00012096069
0.00011611732
0.0001912862
0.00022851978
0.00030279547
0.00039350614
0.0004439049
0.00042321861
0.00033741904
0.00021212277
0.00011190093
4.4544492e-05
4.1229461e-05
0.00064753397
0.0010261491
0.0010442566
0.0010168065
0.00095401434
0.0008309927
0.00067270792
0.00052059499
0.00039849447
0.00030900681
0.00024597493
0.00020260457
0.00016966295
0.00013813665
0.00011500663
0.0001133448
0.00015152134
0.00018635133
0.00025146421
0.00031214697
0.00033703203
0.00031588011
0.00025422604
0.00017340333
0.00010580199
4.4850017e-05
3.3050163e-05
0.0007731309
0.00071766023
0.00055973894
0.00053556442
0.00058022866
0.00059106156
0.00053183893
0.00043132527
0.00032911678
0.00024998069
0.00020554326
0.00018706383
0.00016600647
0.00012632022
0.00011188373
0.00011741814
0.00012603936
0.0001575774
0.00020601713
0.00024118427
0.00024932785
0.00022861902
0.00018646178
0.00013706125
9.3218299e-05
4.3194379e-05
2.7546322e-05
0.00054802311
0.00043774894
0.00029227528
0.00026620324
0.00029221051
0.00032394445
0.00032543655
0.00028932428
0.00023833504
0.00021575761
0.00023205153
0.00023771526
0.00020099771
0.00013037793
0.00010116384
0.00011096039
0.00010918932
0.00013646804
0.00016871118
0.00018591917
0.00018411293
0.00016505999
0.00013627381
0.00010670957
7.8333589e-05
3.9885984e-05
2.4382308e-05
3.7616629e-05
0.00042365894
0.00013325951
0.00011831495
0.00013760266
0.00014946835
0.00015215088
0.00014599637
0.00013177147
0.00014508129
0.00020665998
0.00026334304
0.00025582257
0.00021966303
0.00013440928
8.0613617e-05
9.104433e-05
0.00010333874
0.00012755237
0.00014639614
0.00015409612
0.00015072244
0.00013767392
0.00011909152
9.8601309e-05
7.4320365e-05
3.887044e-05
2.4617782e-05
3.166348e-05
7.4280751e-05
4.9263054e-05
7.6873813e-05
0.00010379649
0.0001206655
0.00013013271
0.00013313268
0.00013579649
0.00014886358
0.00017494633
0.00019487561
0.00017755695
0.00016901528
6.2285154e-05
3.5825124e-05
9.7276289e-05
0.00012623384
0.00013600408
0.00013204603
0.00012547841
0.0001204404
0.00011515506
0.00010736342
9.4852668e-05
7.512515e-05
4.2716871e-05
2.6618239e-05
2.5022306e-05
2.7893418e-05
4.4511662e-05
8.7323088e-05
0.000126622
0.00016099813
0.00018668873
0.00020047522
0.00020073487
0.00018853858
0.00016670303
0.0001375105
0.00010977729
0.00011261552
0.00010747791
0.00011128556
8.1009745e-05
9.4818898e-05
0.00010870762
0.00010992267
0.00011476012
0.00012449209
0.00013085677
0.00012543211
0.00010928798
7.8862805e-05
4.3061458e-05
2.9670914e-05
3.8609838e-05
3.1137485e-05
5.0941264e-05
0.00010947545
0.00015982385
0.00020780716
0.00024558396
0.00026502874
0.00026276706
0.00023983454
0.00020077702
0.00015509967
0.00012939373
0.00017386195
0.00022244792
0.0001904753
0.00011254211
9.0949895e-05
0.000112283
0.00013829473
0.00017455995
0.00021092877
0.00022335518
0.00019601967
0.00014006495
9.6522178e-05
0.00010765234
0.00012976115
0.0002177641
4.0297077e-05
5.8267453e-05
0.00013649466
0.00021328176
0.00029078293
0.00034760496
0.00036921339
0.00035446459
0.00031013194
0.00024988758
0.00019363544
0.00016240056
0.00020918633
0.00027931108
0.00024475487
0.00015910232
0.0001340012
0.00015181302
0.00017773367
0.00022132125
0.0002836684
0.00033720065
0.00033225808
0.00025875395
0.00020717255
0.00028209068
0.00029807138
4.8531579e-05
6.3708184e-05
0.00015963625
0.00027424433
0.00039531582
0.00047981118
0.00050370031
0.00047108314
0.00039797173
0.00031248493
0.00024463146
0.00019746423
0.00019878045
0.00025638875
0.00023186904
0.0001751558
0.00017342468
0.00020197696
0.00023704752
0.00028428825
0.00035571979
0.0004497142
0.00052839709
0.00054286367
0.00051773678
0.00054209443
0.00051779904
6.3617224e-05
0.00016810674
0.00033211647
0.00051462148
0.00063467562
0.00066465728
0.00061067891
0.00050456427
0.00039756914
0.00032201174
0.00025766113
0.00018981969
0.00017931676
0.00018122305
0.00017613228
0.00020005196
0.00024898532
0.00031091874
0.0003798972
0.00045947071
0.00056268997
0.00069359348
0.00082791348
0.00091846399
0.00087035481
0.00053267234
5.0096122e-05
0.00015773779
0.00036854335
0.00062968916
0.00080429441
0.00085051214
0.00077192335
0.0006352722
0.00051565853
0.00043011046
0.00033644778
0.00021211134
0.00011775533
0.00013489531
0.00017269612
0.00021074308
0.00027885114
0.0003731724
0.00048132619
0.00059217823
0.00069877999
0.00079122606
0.00084705652
0.00079539365
0.00061010345
0.00045935107
6.2823972e-05
0.00012321993
0.00035524535
0.00070377179
0.00096363192
0.0010477714
0.00095308741
0.00080019033
0.00067368563
0.00055860076
0.00040854111
0.00023805586
0.00011070519
0.0001128802
0.00016646339
0.00020523329
0.00028302408
0.0003972161
0.00053330695
0.00067579804
0.00080470057
0.00087527741
0.00081253883
0.00054403636
0.00029990771
6.4225154e-05
0.00028083153
0.00068326583
0.0010650769
0.0012312923
0.0011461572
0.0010083293
0.00086196995
0.00067450984
0.00044354512
0.00024074369
0.00011849651
0.00010736356
0.00015517838
0.00018488887
0.00025748988
0.00036706036
0.00049419958
0.00061941359
0.00070693404
0.00070370178
0.00056235002
0.00039338773
0.00010628793
0.00053277726
0.0010344382
0.0013298445
0.0013267707
0.0012542398
0.0010456228
0.00073358202
0.00042914478
0.00022508654
0.00012141268
0.00010396914
0.00013840933
0.00015424787
0.00020549078
0.00028490876
0.00037197999
0.00043879378
0.00044360427
0.00035079044
0.00026399564
0.0001656046
0.00019903901
0.00081117301
0.001221403
0.0014224163
0.0014979108
0.0011776108
0.00072346538
0.00040006504
0.00020408203
0.00011353462
9.4163941e-05
0.00011606272
0.00012101626
0.0001433815
0.00017693905
0.00020372715
0.00020534106
0.00016975062
0.00012900472
8.3807988e-05
0.00032772973
0.00080120859
0.0012772422
0.0016338311
0.0012256052
0.00070888093
0.00042147284
0.00019004049
8.9651621e-05
7.1674057e-05
8.616197e-05
8.8890937e-05
9.3983486e-05
9.8749922e-05
9.3319519e-05
7.4131535e-05
5.3868693e-05
5.7099538e-05
0.00026483215
0.00066871668
0.0014137924
0.0011292619
0.00078642837
0.00054543304
0.00023643852
7.497236e-05
3.5483461e-05
4.1078738e-05
4.3702866e-05
4.3562756e-05
4.1559321e-05
3.7471844e-05
4.0104045e-05
0.00069585242
0.00061693727
0.00082449134
0.00071636102
0.00041602182
0.00016697614
4.0550409e-05
2.261257e-05
2.4953586e-05
2.8085519e-05
3.4729801e-05
3.997611e-05
0.00046042658
0.00045764109
0.00029116008
0.00012786266
2.445017e-05
5.7916569e-05
5.0441619e-05
4.0557165e-05
3.1664526e-05
2.9961897e-05
3.6521247e-05
0.00012579941
0.00034089866
0.00063108199
7.6846988e-05
9.4153425e-05
9.6885933e-05
9.2113801e-05
8.4174787e-05
6.916041e-05
5.9309943e-05
6.1567257e-05
8.5536065e-05
0.00023768945
0.00062868719
0.0011663897
0.00079256612
0.00053897542
0.0001102627
0.00019317286
0.00025081191
0.00026297437
0.00024406097
0.00020825641
0.00016876617
0.00012882827
9.4360406e-05
7.9601914e-05
7.2333966e-05
0.00010194952
0.00035238868
0.0010211073
0.0011940936
0.00084732983
0.0005017263
0.00017512558
0.00042477445
0.00052844091
0.00054027875
0.00048439057
0.00040090349
0.0003155887
0.00024085329
0.00017817396
0.00012906134
0.00010613883
9.1310247e-05
0.00010772163
0.00027020229
0.00082600095
0.0011681153
0.0011708794
0.00082329379
0.0003238182
0.00030802992
0.00075062061
0.00094168871
0.00096223606
0.00086234842
0.00071048152
0.00055313312
0.00041501747
0.00030392531
0.0002165025
0.00015813873
0.00012966848
0.00011591056
0.00015073112
0.00033878869
0.00073324826
0.0010297105
0.0012102634
0.0010065575
0.00054908808
0.00017459641
0.00049436357
0.0011100606
0.0013825354
0.0014107961
0.0012707553
0.0010624253
0.00084420794
0.00064766022
0.00047966846
0.00034586326
0.00024416469
0.00018149158
0.00014602335
0.00013619764
0.00021571856
0.00041564532
0.00065359422
0.00087970441
0.0010891784
0.00100737
0.00067721684
0.00029540329
8.3513405e-05
0.001152033
0.0016608231
0.001753094
0.0015907477
0.0013407568
0.0010875465
0.00085440147
0.00065439567
0.00048984207
0.00035842996
0.00025818207
0.00019695514
0.00015490727
0.00015029402
0.00025892517
0.00041328111
0.00055317615
0.00073812982
0.00091372025
0.00088828067
0.00067222201
0.00035709224
0.0001309851
6.6200798e-05
0.00084767681
0.0017989822
0.0019031807
0.0017097693
0.0014414222
0.0011773254
0.00094643197
0.0007507394
0.00058648863
0.00045038177
0.00033974782
0.00025447257
0.00020091116
0.00015788358
0.00015064437
0.00025990971
0.0003524023
0.00045524503
0.00060651573
0.00073008994
0.000722103
0.0005807276
0.00035247271
0.00016675094
6.0088291e-05
0.0018479842
0.0019823333
0.0017571395
0.001480074
0.0012107439
0.00096747677
0.00076480431
0.00060423246
0.00047760151
0.00037648249
0.00029585171
0.00023427966
0.00019275052
0.00015769763
0.00015021997
0.0002295712
0.00028417519
0.00037309683
0.00048503438
0.0005596105
0.00055331007
0.00045794349
0.00030602667
0.00017222481
6.4399367e-05
4.5795036e-05
0.00085242649
0.0014131915
0.0012393873
0.0010767176
0.0010179076
0.00093296293
0.00078547169
0.00062202079
0.0004821287
0.00037652496
0.00030122466
0.00024940224
0.00021095621
0.00017798415
0.00015800162
0.00015751268
0.00019362427
0.00023193528
0.00030410239
0.00037597214
0.00041339071
0.00040317155
0.00034054887
0.00024716312
0.00015848709
6.6979209e-05
3.8292476e-05
0.0010255115
0.00093768182
0.00058752845
0.0004763869
0.00052648446
0.00058863292
0.00057524635
0.00049336957
0.00039156076
0.00030957696
0.00026449457
0.00024393838
0.00021744142
0.00017277288
0.00015741466
0.00016564862
0.00016784662
0.00019532256
0.0002443816
0.00028284405
0.0002959562
0.00028285873
0.00024584572
0.00019253463
0.00013608308
6.4536435e-05
3.3575876e-05
0.00083934333
0.0005196554
0.00023615982
0.00018830122
0.00022307176
0.00027695726
0.00031045354
0.00030631658
0.00028206805
0.00028008355
0.00030196459
0.00030171495
0.00025741002
0.00017800644
0.00014444776