/*--------------------------------*- C++ -*----------------------------------*\
| =========                 |                                                 |
| \\      /  F ield         | OpenFOAM: The Open Source CFD Toolbox           |
|  \\    /   O peration     | Version:  2406                                  |
|   \\  /    A nd           | Website:  www.openfoam.com                      |
|    \\/     M anipulation  |                                                 |
\*---------------------------------------------------------------------------*/
FoamFile
{
    version     2.0;
    format      ascii;
    arch        "LSB;label=32;scalar=64";
    class       volScalarField;
    location    "300";
    object      nut;
}
// * * * * * * * * * * * * * * * * * * * * * * * * * * * * * * * * * * * * * //

dimensions      [0 2 -1 0 0 0 0];

internalField   nonuniform List<scalar> 
150387
(
4.7011074e-06
3.3992781e-06
2.8780864e-06
2.909383e-06
2.1054161e-06
4.7664853e-06
5.5092421e-06
3.9516596e-06
1.8110326e-06
2.3394394e-06
2.3481623e-06
2.5499309e-06
2.6958402e-06
2.788817e-06
2.9484961e-06
2.7650032e-06
8.2588351e-06
1.4570109e-05
1.1704338e-05
1.9100421e-05
6.3588201e-06
2.2982346e-06
2.7581141e-06
3.866954e-06
4.8421307e-06
5.3324024e-06
5.2753685e-06
4.8990201e-06
4.4860574e-06
3.4750011e-06
9.3754733e-06
1.2613517e-05
1.7254896e-05
2.7829179e-05
1.7255166e-05
1.0027467e-05
2.9230583e-06
1.8373346e-06
5.2382625e-06
1.0070196e-05
1.3287215e-05
1.3447087e-05
1.214772e-05
1.0213681e-05
8.2146907e-06
6.7010177e-06
5.6053538e-06
3.9301501e-06
7.4287787e-06
1.22548e-05
2.1710931e-05
2.7189735e-05
1.8460069e-05
2.1866474e-05
1.9493529e-05
4.694218e-06
1.4903689e-06
1.0701997e-05
1.9973308e-05
2.524618e-05
2.6330884e-05
2.4272322e-05
2.0213549e-05
1.5747171e-05
1.1655083e-05
8.4270506e-06
6.2495878e-06
4.0335256e-06
6.032907e-06
1.3013368e-05
2.0766874e-05
2.1567247e-05
1.9044103e-05
2.7992819e-05
2.6744564e-05
1.5415355e-05
4.0521808e-06
1.4686659e-05
2.7082608e-05
3.423783e-05
3.4936298e-05
3.2051138e-05
2.7598689e-05
2.2743443e-05
1.7894653e-05
1.3431065e-05
9.7081492e-06
6.7927937e-06
3.9219072e-06
5.4269915e-06
1.1723682e-05
1.5837908e-05
1.4094735e-05
1.9428788e-05
2.9027401e-05
3.0809441e-05
2.2034236e-05
8.7922277e-06
1.9615125e-06
7.6622358e-06
2.4178579e-05
3.3858558e-05
3.7148123e-05
3.5756843e-05
3.1900063e-05
2.7087972e-05
2.1763357e-05
1.6686016e-05
1.2521249e-05
9.2319787e-06
6.558943e-06
3.7362028e-06
4.6732759e-06
9.1170935e-06
1.0484503e-05
1.0308506e-05
1.8681351e-05
2.7076299e-05
2.9685863e-05
2.4555342e-05
1.3539235e-05
2.7676922e-06
1.812035e-06
1.7564669e-06
1.7431402e-05
2.5950551e-05
3.1957921e-05
3.3074789e-05
3.1021053e-05
2.6471503e-05
2.1554061e-05
1.6835872e-05
1.3171541e-05
1.0111115e-05
7.759132e-06
5.7218183e-06
3.365097e-06
4.0502386e-06
6.6605646e-06
6.7940412e-06
8.8050596e-06
1.6510387e-05
2.3615621e-05
2.6197812e-05
2.3574139e-05
1.4678658e-05
4.4514668e-06
1.9265293e-06
1.6081865e-05
3.5286264e-05
3.6909338e-05
3.2085774e-05
2.5688814e-05
2.0539457e-05
1.6817998e-05
1.3820802e-05
1.0935365e-05
8.7864985e-06
7.2228928e-06
5.9952804e-06
4.6864318e-06
3.1079724e-06
3.5706902e-06
4.9545792e-06
5.0278145e-06
7.715709e-06
1.3684318e-05
1.9491262e-05
2.1721155e-05
2.0367755e-05
1.3328957e-05
5.6150659e-06
2.1577465e-06
2.7502901e-06
1.7763187e-05
3.5734724e-05
3.9907325e-05
3.5105668e-05
2.6654961e-05
1.8214557e-05
1.2454948e-05
8.9041854e-06
6.9276212e-06
5.857644e-06
5.2579375e-06
4.7863313e-06
3.8775102e-06
3.1839806e-06
3.4383691e-06
4.0011433e-06
4.3136333e-06
6.6892249e-06
1.100008e-05
1.528993e-05
1.7270187e-05
1.6396994e-05
1.1008503e-05
5.9378252e-06
2.395449e-06
2.1495896e-06
6.6460474e-06
1.7313063e-05
2.0693109e-05
2.7101461e-05
2.7536675e-05
2.3236013e-05
1.7173741e-05
1.1765551e-05
7.9578128e-06
5.8902533e-06
5.1172094e-06
5.1356467e-06
4.5968945e-06
3.6146038e-06
3.4663652e-06
4.0309296e-06
3.6899052e-06
3.9920744e-06
5.8351133e-06
8.819671e-06
1.1711695e-05
1.3204981e-05
1.2625847e-05
8.8136714e-06
5.8188199e-06
2.7271783e-06
1.9602905e-06
1.0094087e-05
1.9101707e-05
1.6335387e-05
1.5141935e-05
1.6136432e-05
1.5076392e-05
1.2222674e-05
9.0596052e-06
6.6283568e-06
5.5162521e-06
6.1062747e-06
6.4966682e-06
5.8254412e-06
3.7725637e-06
3.0497278e-06
4.0237921e-06
3.5349061e-06
3.7178816e-06
5.1044595e-06
7.0808343e-06
8.876212e-06
9.8273419e-06
9.3646935e-06
7.1552097e-06
5.676942e-06
3.0532803e-06
2.0201338e-06
2.091121e-06
1.0607012e-05
1.2838312e-05
1.1955082e-05
9.1122418e-06
8.0751361e-06
7.7784606e-06
6.7153871e-06
5.434558e-06
4.6340899e-06
5.6664235e-06
8.0773659e-06
9.115666e-06
7.0946456e-06
3.4212163e-06
2.1365708e-06
3.0638184e-06
2.9442979e-06
3.3579426e-06
4.3085083e-06
5.4523066e-06
6.5212528e-06
7.1061343e-06
6.8666209e-06
6.0635738e-06
5.3296116e-06
3.3562298e-06
2.0945633e-06
1.5808614e-06
9.8933963e-06
1.1580428e-05
8.0492672e-06
5.8150115e-06
4.7644168e-06
4.2587914e-06
3.7915716e-06
3.2072296e-06
3.4425937e-06
5.2866945e-06
7.1469291e-06
7.0278456e-06
3.6795179e-06
6.6067626e-07
1.1872365e-06
2.7412784e-06
3.6465766e-06
4.216403e-06
4.1692817e-06
3.9890699e-06
3.9647882e-06
3.9295454e-06
3.8995618e-06
3.6348492e-06
3.6000961e-06
3.5489528e-06
2.7819828e-06
1.0524201e-06
4.4713397e-06
5.274038e-06
4.0263426e-06
3.6432945e-06
4.2037024e-06
4.5927276e-06
4.8201083e-06
4.6923333e-06
4.2989944e-06
4.1243958e-06
3.9946509e-06
3.3776678e-06
2.3706058e-06
1.7422612e-06
1.6687538e-06
2.5530637e-06
3.22153e-06
3.8236869e-06
3.4517712e-06
3.2518245e-06
3.5111462e-06
4.07099e-06
4.7740574e-06
5.3817475e-06
6.6563671e-06
8.1915545e-06
6.7399033e-06
2.8886029e-06
2.1546597e-06
2.3849367e-06
3.930425e-06
5.687713e-06
7.2394945e-06
8.650338e-06
8.7037689e-06
7.7642907e-06
6.3180095e-06
4.8235442e-06
3.7141562e-06
3.1888521e-06
3.6566305e-06
5.929548e-06
5.4564754e-06
3.1542519e-06
2.5074938e-06
3.0323993e-06
3.4063754e-06
4.0470903e-06
5.31475e-06
7.2270734e-06
9.1585176e-06
9.887101e-06
1.0360728e-05
1.2835108e-05
1.0141999e-05
4.0332768e-06
1.7411951e-06
2.2580637e-06
4.2757654e-06
7.3060748e-06
1.087166e-05
1.3199132e-05
1.2860666e-05
1.0948031e-05
8.2898734e-06
5.8679675e-06
4.3602732e-06
3.9409843e-06
5.0209459e-06
9.0024452e-06
9.3994571e-06
5.2647664e-06
3.3416911e-06
3.6552497e-06
4.0389431e-06
4.5646309e-06
6.1030913e-06
9.6381654e-06
1.4140109e-05
1.6977957e-05
1.5648482e-05
1.4125924e-05
1.6339612e-05
3.6757684e-06
2.6842489e-06
2.2605049e-06
4.3600823e-06
9.586615e-06
1.5657988e-05
1.8375897e-05
1.7782712e-05
1.4763638e-05
1.0531411e-05
6.8957753e-06
4.9711998e-06
4.4329507e-06
5.2804007e-06
8.3149395e-06
9.307445e-06
6.0196385e-06
4.4693194e-06
5.1500631e-06
5.814897e-06
6.3612161e-06
7.0544744e-06
9.7900089e-06
1.6157483e-05
2.2954906e-05
2.4083271e-05
1.7244359e-05
1.074618e-05
2.1564502e-06
3.800314e-06
1.1446657e-05
2.0565311e-05
2.3663735e-05
2.3503089e-05
1.9348234e-05
1.342121e-05
8.2529692e-06
6.0615122e-06
5.4611651e-06
4.9734784e-06
5.6546576e-06
6.9515026e-06
5.7915213e-06
5.8649277e-06
7.4386715e-06
9.0170304e-06
1.0721789e-05
1.2176853e-05
1.2709386e-05
1.4725188e-05
2.1944753e-05
2.7762964e-05
2.7199024e-05
1.3561173e-05
2.731707e-06
2.9856384e-06
1.2366965e-05
2.4434813e-05
2.8935736e-05
2.9095247e-05
2.4633535e-05
1.6933263e-05
1.0348168e-05
8.4646588e-06
7.6035399e-06
5.7871698e-06
4.2981751e-06
3.8503521e-06
5.2525951e-06
7.4155231e-06
1.0080358e-05
1.2985318e-05
1.6462504e-05
2.0113821e-05
2.2353064e-05
2.1465247e-05
1.7984719e-05
1.6515105e-05
1.3384622e-05
3.815556e-06
2.3710766e-06
1.1219708e-05
2.5528536e-05
3.3465562e-05
3.4199454e-05
3.0127526e-05
2.0371652e-05
1.4076066e-05
1.3125834e-05
1.1087676e-05
7.5695954e-06
4.7126446e-06
3.0404452e-06
5.0661642e-06
8.8195153e-06
1.2385107e-05
1.637256e-05
2.091713e-05
2.5419771e-05
2.9240238e-05
3.055841e-05
2.7493076e-05
1.764297e-05
4.6783121e-06
3.4891592e-06
6.9327361e-06
2.2792532e-05
3.5599019e-05
3.7689941e-05
3.3661864e-05
2.3747813e-05
2.0644691e-05
1.968417e-05
1.5328769e-05
9.5812867e-06
5.4365803e-06
3.4510015e-06
4.8292382e-06
9.5685238e-06
1.3477947e-05
1.7456748e-05
2.2176847e-05
2.7029523e-05
3.0498471e-05
3.0398597e-05
2.425099e-05
1.540457e-05
1.5697331e-06
4.2264946e-06
1.5717685e-05
3.2668415e-05
3.7436424e-05
3.4059605e-05
2.8560595e-05
3.0015152e-05
2.6834947e-05
1.8672783e-05
1.0753716e-05
5.7413263e-06
3.8779112e-06
4.3866718e-06
9.1942438e-06
1.2600043e-05
1.6062573e-05
1.994897e-05
2.2904602e-05
2.2986224e-05
1.9074484e-05
1.0000791e-05
2.2565495e-06
6.3129077e-06
2.2545688e-05
3.1573249e-05
2.9801728e-05
3.3117175e-05
3.8209372e-05
3.1110507e-05
1.9255855e-05
1.0430401e-05
6.1752053e-06
4.3045872e-06
3.6942842e-06
7.6040742e-06
8.73125e-06
1.0392296e-05
1.2406539e-05
1.3130768e-05
1.0611128e-05
5.3607309e-06
2.5409472e-06
7.7059382e-06
1.8005508e-05
2.0994445e-05
3.675562e-05
4.1461763e-05
2.8426433e-05
1.7225678e-05
1.2100351e-05
8.5210282e-06
5.5637925e-06
3.3455075e-06
6.1456703e-06
5.8465324e-06
5.3148934e-06
4.3285365e-06
2.9302531e-06
2.0186325e-06
1.8410796e-06
1.4349398e-06
1.2395204e-05
3.0297816e-05
3.2563068e-05
1.8630693e-05
1.8420666e-05
1.581917e-05
1.1533635e-05
8.3124763e-06
3.4479375e-06
3.075393e-06
2.603985e-06
2.1731949e-06
1.8434462e-06
1.6117062e-06
1.8119885e-06
3.8952716e-06
8.5963119e-06
1.6942727e-05
2.1054145e-05
1.3806743e-05
1.2417809e-05
8.5122847e-06
3.1997206e-06
1.7125579e-06
1.836835e-06
1.6374014e-06
2.6196696e-06
4.020921e-06
5.3614916e-06
5.5920253e-06
3.9212713e-06
1.5953023e-06
1.4195589e-06
2.6681197e-06
5.7543604e-06
6.7118847e-06
5.7282795e-06
5.8874345e-06
5.4014853e-06
3.9054858e-06
9.2624993e-06
1.1174657e-05
5.7179821e-06
8.279317e-06
9.5416235e-06
1.0176905e-05
1.0368722e-05
1.0299984e-05
1.1012739e-05
8.3796394e-06
6.9805326e-06
1.0715602e-05
1.8303618e-05
3.0760863e-05
1.0460091e-05
5.0756269e-06
3.2659631e-06
1.0275021e-05
1.3851455e-05
1.6450443e-05
1.8109536e-05
1.8697441e-05
1.8414116e-05
1.7383351e-05
1.8361126e-05
1.1544091e-05
1.1341036e-05
1.4218678e-05
2.6111039e-05
4.432037e-05
3.5769835e-05
2.1591336e-05
1.2737497e-05
4.9087424e-06
1.6586772e-05
2.3728531e-05
2.840731e-05
3.0283472e-05
2.9970811e-05
2.8394144e-05
2.6288032e-05
2.3909526e-05
2.3745702e-05
1.3823991e-05
1.403568e-05
2.0618633e-05
3.5854141e-05
5.0453426e-05
4.5779285e-05
4.1130726e-05
2.7152888e-05
9.2555372e-06
6.0628255e-06
2.6371099e-05
3.8567513e-05
4.5650795e-05
4.7679007e-05
4.6247423e-05
4.2896026e-05
3.8732043e-05
3.4402334e-05
3.0203532e-05
2.7945131e-05
1.5331166e-05
1.5710248e-05
2.8214598e-05
4.2237515e-05
5.0270818e-05
4.9926651e-05
5.2116411e-05
4.0413674e-05
2.102383e-05
5.5884376e-06
5.7586499e-06
3.3076734e-05
5.019749e-05
5.9654445e-05
6.2614417e-05
6.1309974e-05
5.7426089e-05
5.2230725e-05
4.6342589e-05
4.0350114e-05
3.4771019e-05
3.0445387e-05
1.6297755e-05
1.5992691e-05
3.1983294e-05
4.2484862e-05
4.6641886e-05
5.0761363e-05
5.5635467e-05
4.7209441e-05
3.0209534e-05
1.2611249e-05
3.6872875e-06
2.6780484e-05
5.2412145e-05
6.7351814e-05
7.2179766e-05
7.1120764e-05
6.7143913e-05
6.1559967e-05
5.5361918e-05
4.8835368e-05
4.2293439e-05
3.6197329e-05
3.0574059e-05
1.625902e-05
1.479536e-05
3.0777997e-05
3.7902965e-05
4.2222737e-05
4.981928e-05
5.4820029e-05
4.8665282e-05
3.4907356e-05
1.7425761e-05
7.8662449e-06
3.3179041e-06
1.4987024e-05
4.9924163e-05
6.6327196e-05
7.2309428e-05
7.2008051e-05
6.8517634e-05
6.350243e-05
5.7766759e-05
5.16548e-05
4.5458432e-05
3.9456191e-05
3.3831925e-05
2.7903905e-05
1.5142747e-05
1.2848144e-05
2.6270811e-05
3.1824022e-05
3.852751e-05
4.7521046e-05
5.158092e-05
4.6771673e-05
3.5484771e-05
2.0411717e-05
1.0281491e-05
4.5199418e-06
4.532222e-05
7.019231e-05
7.9701545e-05
7.8530124e-05
7.1871452e-05
6.3628332e-05
5.5646022e-05
4.8587717e-05
4.2378214e-05
3.6960436e-05
3.2267074e-05
2.7933426e-05
2.2746797e-05
1.3337026e-05
1.1190495e-05
2.075799e-05
2.6276854e-05
3.5389015e-05
4.4048333e-05
4.7036356e-05
4.3007374e-05
3.354911e-05
2.1337807e-05
1.208671e-05
6.3156228e-06
4.270134e-06
7.6263225e-06
3.4967702e-05
5.6036285e-05
6.9241737e-05
7.3058435e-05
6.8917155e-05
6.0125753e-05
4.9758216e-05
4.0171918e-05
3.2425811e-05
2.6953618e-05
2.349057e-05
2.0743342e-05
1.6776519e-05
1.2214266e-05
1.095709e-05
1.6364593e-05
2.2487804e-05
3.2408926e-05
3.9857667e-05
4.1967778e-05
3.8417064e-05
3.0487677e-05
2.0917546e-05
1.330809e-05
7.5103924e-06
5.8800679e-06
1.9218483e-05
2.9749201e-05
3.5587414e-05
4.5251397e-05
5.3791642e-05
5.6007432e-05
5.1396123e-05
4.2566172e-05
3.2806839e-05
2.4842841e-05
2.0744023e-05
2.0183216e-05
1.8879616e-05
1.3953521e-05
1.2082852e-05
1.2048655e-05
1.3848397e-05
2.0276579e-05
2.9442589e-05
3.5394108e-05
3.6734503e-05
3.3601603e-05
2.7211568e-05
1.9825835e-05
1.3771696e-05
7.8298921e-06
5.0174654e-06
1.1087254e-05
2.4598949e-05
2.588809e-05
2.8475298e-05
3.3023137e-05
3.5865926e-05
3.4301038e-05
2.9036005e-05
2.2817634e-05
2.0711913e-05
2.5316594e-05
2.858917e-05
2.4955521e-05
1.5389875e-05
1.1229271e-05
1.2182848e-05
1.2451639e-05
1.8745892e-05
2.6621602e-05
3.136034e-05
3.2290333e-05
2.9715039e-05
2.472232e-05
1.9053124e-05
1.395972e-05
8.0902293e-06
5.3277492e-06
2.083417e-06
1.4882433e-05
1.5367572e-05
1.7197784e-05
1.7399297e-05
1.6778872e-05
1.5744558e-05
1.3844856e-05
1.1543625e-05
1.2936534e-05
2.2275597e-05
3.2544792e-05
3.313587e-05
2.8171464e-05
1.7680607e-05
8.1519329e-06
9.7798467e-06
1.1838795e-05
1.7473391e-05
2.3388679e-05
2.7532749e-05
2.9232118e-05
2.8386145e-05
2.5680546e-05
2.1742167e-05
1.6915575e-05
8.9058598e-06
5.6626244e-06
3.7636194e-06
5.1192202e-06
8.4800453e-06
1.056347e-05
1.0627094e-05
1.1057524e-05
1.205521e-05
1.3101719e-05
1.3947638e-05
1.6451034e-05
2.1134608e-05
2.4253033e-05
2.1322752e-05
1.8914126e-05
1.4384249e-06
3.2952353e-06
1.121107e-05
1.5157284e-05
1.6823612e-05
1.6809378e-05
1.652338e-05
1.6182564e-05
1.5311472e-05
1.3772404e-05
1.1871789e-05
9.8720921e-06
6.5446657e-06
4.1227754e-06
3.2891036e-06
4.1818118e-06
6.5618811e-06
1.1843335e-05
1.7943082e-05
2.3878882e-05
2.838279e-05
3.0420433e-05
2.963124e-05
2.6182081e-05
2.1117155e-05
1.5375024e-05
1.0705682e-05
9.2152802e-06
8.4949253e-06
1.1304945e-05
8.0751773e-06
9.6842097e-06
1.0849502e-05
1.062661e-05
1.1338394e-05
1.3018722e-05
1.4516616e-05
1.5093363e-05
1.4494596e-05
1.2873874e-05
8.4852164e-06
5.132561e-06
3.3010784e-06
5.3284127e-06
9.1468249e-06
1.6915581e-05
2.3490207e-05
3.0190468e-05
3.5508365e-05
3.8010383e-05
3.707043e-05
3.2633615e-05
2.5259552e-05
1.6976771e-05
1.2695309e-05
1.9714271e-05
2.9546347e-05
2.4806432e-05
1.2556208e-05
9.2258209e-06
1.1748906e-05
1.4523049e-05
1.8943371e-05
2.4187431e-05
2.7495913e-05
2.6538855e-05
2.1576675e-05
1.5750588e-05
1.1190489e-05
8.2504961e-06
6.3039778e-06
6.6254578e-06
8.770931e-06
1.6265124e-05
2.4765061e-05
3.4170129e-05
4.1573358e-05
4.4935413e-05
4.3673331e-05
3.8022493e-05
2.9382999e-05
2.061756e-05
1.5924725e-05
2.367506e-05
3.7437305e-05
3.3551369e-05
2.0313318e-05
1.6506207e-05
1.8677007e-05
2.105469e-05
2.5381073e-05
3.1410723e-05
3.6987182e-05
3.8063762e-05
3.2476138e-05
2.3737977e-05
1.856772e-05
1.6111185e-05
4.7749317e-06
8.6561914e-06
1.6355131e-05
2.7052276e-05
3.9152056e-05
4.8516568e-05
5.2519317e-05
5.0690854e-05
4.368296e-05
3.408063e-05
2.539432e-05
1.9062911e-05
2.0251495e-05
3.2203184e-05
3.2087652e-05
2.501376e-05
2.4829597e-05
2.7419237e-05
2.9635047e-05
3.2488683e-05
3.6560884e-05
4.2442881e-05
4.7482158e-05
4.6982521e-05
3.8371028e-05
2.4631286e-05
1.560894e-05
7.5472494e-06
1.4965221e-05
2.7878507e-05
4.3339085e-05
5.4709191e-05
5.9763065e-05
5.7608429e-05
4.9733982e-05
4.0410557e-05
3.2837761e-05
2.5334498e-05
1.7800204e-05
1.9141423e-05
2.4743926e-05
2.8099623e-05
3.1111123e-05
3.4298189e-05
3.759887e-05
4.0598225e-05
4.3220678e-05
4.6258721e-05
5.0050363e-05
5.2307758e-05
4.807192e-05
3.2975449e-05
1.8002967e-05
7.7934479e-06
1.2675261e-05
2.6549106e-05
4.5676809e-05
5.9607499e-05
6.6339434e-05
6.4066555e-05
5.6296031e-05
4.8860418e-05
4.2701493e-05
3.3728077e-05
2.0939111e-05
1.0692227e-05
1.7053388e-05
3.0182939e-05
3.4044091e-05
3.7705369e-05
4.2549335e-05
4.7248319e-05
5.0475662e-05
5.1316321e-05
4.9241073e-05
4.3570067e-05
3.2920081e-05
2.0496005e-05
5.6523616e-06
2.6424125e-06
9.5175853e-06
2.2305451e-05
4.4426132e-05
6.1733056e-05
7.1077136e-05
6.9460228e-05
6.3632185e-05
5.91271e-05
5.3179702e-05
4.1351312e-05
2.5217915e-05
1.0474151e-05
1.2786953e-05
3.047364e-05
3.3731688e-05
3.7133907e-05
4.2779066e-05
4.8463988e-05
5.2832796e-05
5.4363609e-05
5.0887007e-05
3.951774e-05
2.0013554e-05
6.9811684e-06
6.4176245e-06
1.5665329e-05
3.7747457e-05
5.9313357e-05
7.2548326e-05
7.2719537e-05
7.1528934e-05
6.9542179e-05
6.106696e-05
4.5003891e-05
2.7054394e-05
1.2217785e-05
1.1053659e-05
2.8311642e-05
3.0617261e-05
3.2589903e-05
3.7671277e-05
4.2482529e-05
4.5451667e-05
4.4827033e-05
3.8779872e-05
2.6016197e-05
1.7541744e-05
5.0721947e-06
2.5697718e-05
5.0023275e-05
6.753755e-05
7.2261312e-05
7.8623698e-05
7.7164483e-05
6.2805103e-05
4.2785307e-05
2.588688e-05
1.3601084e-05
9.9634398e-06
2.3889949e-05
2.5635986e-05
2.5091833e-05
2.8476143e-05
3.1250167e-05
3.1718842e-05
2.7987876e-05
1.942199e-05
1.4059226e-05
4.9078648e-06
8.0405401e-06
3.2738191e-05
5.2063597e-05
6.5096775e-05
8.1090166e-05
7.7408834e-05
5.6196913e-05
3.6502642e-05
2.3727451e-05
1.4797635e-05
9.4174518e-06
1.8102076e-05
2.0265365e-05
1.7130523e-05
1.7913309e-05
1.744202e-05
1.5111903e-05
1.1071991e-05
7.7290875e-06
3.9107291e-06
8.9502213e-06
2.6083717e-05
4.7989751e-05
7.2793329e-05
6.5717358e-05
4.3659194e-05
3.1171051e-05
2.1917209e-05
1.4780535e-05
9.1168917e-06
1.2071093e-05
1.5162232e-05
1.127721e-05
1.0524548e-05
8.8449473e-06
6.8153205e-06
4.5584489e-06
3.2712356e-06
6.1210075e-06
1.9971644e-05
4.7062245e-05
4.0335293e-05
3.2038255e-05
2.8221459e-05
1.9331971e-05
1.1809387e-05
6.6198374e-06
5.6397455e-06
8.2257855e-06
6.7145589e-06
5.9624872e-06
4.1149939e-06
3.7729113e-06
1.3823028e-05
1.033924e-05
2.2590343e-05
2.4245503e-05
1.8027433e-05
1.2301681e-05
4.9441409e-06
3.2544272e-06
4.8707452e-06
5.0871566e-06
5.2544936e-06
2.0872122e-06
5.6945145e-06
1.2347442e-05
1.0160658e-05
5.3981225e-06
2.3706391e-06
2.5920789e-06
5.4423338e-06
6.8669253e-06
5.986601e-06
6.3317244e-06
7.088018e-06
5.6601558e-06
1.2617794e-05
1.3384934e-05
6.379734e-06
1.0056664e-05
1.1297861e-05
1.1828956e-05
1.1970255e-05
1.1370546e-05
1.1856408e-05
1.4051835e-05
1.011113e-05
1.2614915e-05
2.469584e-05
4.0872595e-05
1.5411572e-05
7.2800692e-06
3.5265111e-06
1.293223e-05
1.8241851e-05
2.1554518e-05
2.3126521e-05
2.304648e-05
2.1935077e-05
1.9614613e-05
1.8900265e-05
1.802479e-05
1.3256649e-05
1.3420033e-05
2.8022397e-05
5.6466916e-05
5.2947789e-05
2.9991373e-05
1.5523171e-05
5.5724952e-06
2.1358051e-05
3.0594583e-05
3.5845414e-05
3.7200741e-05
3.6038967e-05
3.3579542e-05
3.0609652e-05
2.7018384e-05
2.6268968e-05
2.2459058e-05
1.5938494e-05
1.7502617e-05
3.532527e-05
6.386831e-05
6.7858378e-05
5.747117e-05
3.5343145e-05
1.0977606e-05
7.2904429e-06
3.2683917e-05
4.7921922e-05
5.5981786e-05
5.7543466e-05
5.4949518e-05
5.0215552e-05
4.4756475e-05
3.939206e-05
3.4225353e-05
3.2937814e-05
2.5903299e-05
1.818386e-05
2.4603398e-05
4.5614833e-05
6.6949825e-05
7.2416087e-05
7.1562147e-05
5.2660003e-05
2.6566172e-05
7.5967428e-06
7.0715699e-06
4.2274746e-05
6.4104626e-05
7.5834141e-05
7.8338975e-05
7.517181e-05
6.907019e-05
6.1808869e-05
5.4265975e-05
4.7086697e-05
4.0672482e-05
3.8272522e-05
2.8180825e-05
2.0855871e-05
3.2430515e-05
5.1830623e-05
6.4242904e-05
7.1009344e-05
7.4469114e-05
6.0920745e-05
3.8222161e-05
1.6477808e-05
4.186923e-06
3.6093255e-05
7.1270179e-05
9.0379931e-05
9.5113149e-05
9.1620105e-05
8.4608958e-05
7.6215173e-05
6.7699117e-05
5.9443552e-05
5.1659052e-05
4.4833775e-05
4.1331596e-05
2.9000273e-05
2.1508274e-05
3.6696908e-05
5.1088617e-05
5.8837628e-05
6.6819375e-05
7.1136754e-05
6.1496392e-05
4.3355418e-05
2.2843685e-05
1.0230739e-05
3.6331733e-06
1.970687e-05
7.1581691e-05
9.5542303e-05
0.00010208522
9.8942629e-05
9.1432413e-05
8.2801049e-05
7.4307565e-05
6.6273963e-05
5.8665607e-05
5.1534044e-05
4.5342186e-05
4.1117954e-05
2.8282224e-05
2.0211232e-05
3.6414778e-05
4.6448478e-05
5.3281738e-05
6.1657815e-05
6.4954716e-05
5.7537159e-05
4.3157335e-05
2.610443e-05
1.3983432e-05
5.4944291e-06
6.0284019e-05
9.3606271e-05
0.00010629301
0.00010567069
9.7524526e-05
8.6596889e-05
7.5934129e-05
6.671691e-05
5.8940968e-05
5.2272407e-05
4.6516516e-05
4.1656766e-05
3.7187669e-05
2.6118276e-05
1.9074484e-05
3.2807529e-05
4.0950141e-05
4.8610949e-05
5.6118645e-05
5.7729841e-05
5.1443406e-05
3.9919885e-05
2.6542709e-05
1.6263919e-05
7.9427187e-06
4.3466304e-06
8.8494534e-06
5.0199987e-05
7.2124415e-05
8.5231766e-05
9.0835034e-05
8.8382217e-05
7.9982253e-05
6.9238065e-05
5.8946132e-05
5.0150402e-05
4.3269286e-05
3.8504578e-05
3.4907218e-05
3.0464389e-05
2.3876087e-05
1.9870274e-05
2.859327e-05
3.6296631e-05
4.4640713e-05
5.0432871e-05
5.0509938e-05
4.4820388e-05
3.5506412e-05
2.5426437e-05
1.7258767e-05
8.7795709e-06
6.3035509e-06
2.1608454e-05
4.0174736e-05
4.2877041e-05
4.9975798e-05
6.0441208e-05
6.7204491e-05
6.6368243e-05
5.9469402e-05
4.9983757e-05
4.1199978e-05
3.6119026e-05
3.4892727e-05
3.2721358e-05
2.6194679e-05
2.2610644e-05
2.1985005e-05
2.5516864e-05
3.3143295e-05
4.1014143e-05
4.4870265e-05
4.3761032e-05
3.8500431e-05
3.1115453e-05
2.3711026e-05
1.7235018e-05
9.3493391e-06
5.889878e-06
1.715773e-05
2.9828616e-05
2.6610879e-05
2.7803924e-05
3.2574408e-05
3.8570491e-05
4.1556514e-05
3.9753018e-05
3.5219789e-05
3.5056024e-05
4.1935609e-05
4.6022962e-05
4.1023922e-05
2.7398979e-05
2.0705016e-05
2.1991825e-05
2.3596548e-05
3.1376609e-05
3.8339339e-05
4.0664667e-05
3.8698994e-05
3.365628e-05
2.741261e-05
2.1590647e-05
1.6307802e-05
9.5294857e-06
6.1677798e-06
2.0766553e-06
1.8819048e-05
1.1950012e-05
1.4100376e-05
1.6495282e-05
1.8155955e-05
1.933945e-05
1.9730422e-05
1.8632701e-05
2.259137e-05
3.6923239e-05
5.1048695e-05
5.1973998e-05
4.8437838e-05
3.0985119e-05
1.7709506e-05
1.9012222e-05
2.3515147e-05
3.1494824e-05
3.7571386e-05
4.0003285e-05
3.9096627e-05
3.5429639e-05
3.0425435e-05
2.494536e-05
1.8879236e-05
1.0994109e-05
7.5056904e-06
3.8299869e-06
5.0641392e-06
8.1153489e-06
1.2728388e-05
1.6483563e-05
1.9606147e-05
2.2370366e-05
2.469606e-05
2.6835734e-05
3.0389508e-05
3.5715177e-05
3.9368949e-05
3.554394e-05
3.6527264e-05
2.0204687e-06
6.6462582e-06
2.0179435e-05
2.6814342e-05
3.0258591e-05
3.0781281e-05
3.0009488e-05
2.8281329e-05
2.6234496e-05
2.3746335e-05
2.0788047e-05
1.6346784e-05
1.040233e-05
6.9734579e-06
3.6351601e-06
4.9698619e-06
9.7439342e-06
1.7758824e-05
2.5102223e-05
3.1990063e-05
3.8037442e-05
4.191111e-05
4.291994e-05
4.0898986e-05
3.6069181e-05
2.868549e-05
2.1369351e-05
2.3527894e-05
1.5430416e-05
2.5802213e-05
1.5915518e-05
1.8307927e-05
2.0565495e-05
1.9856656e-05
1.9566953e-05
2.0218779e-05
2.0592608e-05
1.8819277e-05
1.610483e-05
1.261461e-05
8.3169135e-06
6.4415211e-06
4.0990479e-06
6.2011693e-06
1.0765008e-05
1.9615284e-05
2.7066397e-05
3.4513964e-05
4.1285992e-05
4.6066638e-05
4.7741992e-05
4.5659662e-05
3.9765946e-05
3.0804805e-05
2.4380627e-05
3.3762261e-05
4.7125121e-05
4.0223412e-05
2.3072685e-05
1.8661064e-05
2.235089e-05
2.5800119e-05
2.9949682e-05
3.2878975e-05
3.1704859e-05
2.6023856e-05
1.8585078e-05
1.4071523e-05
1.1358278e-05
1.0071209e-05
8.7792206e-06
6.0484965e-06
1.0872411e-05
2.1137417e-05
3.0447799e-05
4.0310974e-05
4.8913552e-05
5.4272629e-05
5.5220929e-05
5.1606222e-05
4.4530271e-05
3.5778099e-05
2.9204665e-05
3.9443513e-05
5.7878427e-05
5.2123798e-05
3.4710875e-05
2.9274154e-05
3.1237295e-05
3.4255834e-05
3.8901599e-05
4.3920423e-05
4.6255765e-05
4.1368963e-05
2.9982963e-05
2.107045e-05
2.0881729e-05
1.9720195e-05
4.3785165e-06
1.0703392e-05
2.1852936e-05
3.3618379e-05
4.6729668e-05
5.7785368e-05
6.3954437e-05
6.4070225e-05
5.8726605e-05
5.0512043e-05
4.2000522e-05
3.3441724e-05
3.4672324e-05
5.1165899e-05
5.0511471e-05
4.0703461e-05
3.7805636e-05
3.9135331e-05
4.1763738e-05
4.5854984e-05
5.1599211e-05
5.8102004e-05
6.1079796e-05
5.6288575e-05
4.497733e-05
3.2284566e-05
2.1163675e-05
9.6573159e-06
2.0561174e-05
3.5271511e-05
5.2366567e-05
6.6275949e-05
7.383827e-05
7.3421935e-05
6.6786524e-05
5.8390629e-05
5.0557079e-05
4.0659372e-05
2.9794706e-05
3.2576746e-05
4.0813353e-05
4.3196656e-05
4.2017523e-05
4.4257911e-05
4.8592746e-05
5.3604585e-05
5.9279367e-05
6.5926907e-05
7.2031391e-05
7.3456946e-05
6.5524343e-05
4.4141838e-05
2.1084007e-05
8.3861993e-06
1.7425091e-05
3.440162e-05
5.5830079e-05
7.3465981e-05
8.3444029e-05
8.2976141e-05
7.6081263e-05
6.8459476e-05
6.0808407e-05
4.8973543e-05
3.0987949e-05
1.8284664e-05
3.0788494e-05
4.2971283e-05
4.2198813e-05
4.5921669e-05
5.2888125e-05
6.0324628e-05
6.6848606e-05
7.1499191e-05
7.2501259e-05
6.7048171e-05
5.0630358e-05
3.0472456e-05
7.6467778e-06
2.9789897e-06
1.2391965e-05
2.9481105e-05
5.4929432e-05
7.7388524e-05
9.1278021e-05
9.2210411e-05
8.6890903e-05
8.0339834e-05
7.0892297e-05
5.4628934e-05
3.2891407e-05
1.6012042e-05
2.427804e-05
4.0836545e-05
3.9172667e-05
4.363386e-05
5.2050673e-05
6.0873647e-05
6.8215481e-05
7.2140295e-05
6.9118456e-05
5.475609e-05
2.7838845e-05
9.4957904e-06
6.6710225e-06
2.0519169e-05
4.7210555e-05
7.518278e-05
9.5063829e-05
9.9700318e-05
9.8538347e-05
9.2117571e-05
7.7367357e-05
5.4459441e-05
3.1030874e-05
1.6194905e-05
2.1003173e-05
3.6953814e-05
3.399796e-05
3.7789043e-05
4.5400337e-05
5.2653416e-05
5.7613007e-05
5.7699461e-05
4.9974168e-05
3.3297079e-05
2.1891634e-05
6.2731462e-06
3.1968059e-05
6.3507429e-05
9.0045404e-05
0.00010255436
0.00010833892
0.00010000593
7.6525561e-05
4.8106892e-05
2.6718613e-05
1.5789378e-05
1.8985091e-05
3.1723508e-05
2.8001672e-05
2.985202e-05
3.4715201e-05
3.874711e-05
3.9811906e-05
3.5515296e-05
2.4527303e-05
1.7156723e-05
6.186173e-06
9.1024389e-06
4.1543038e-05
7.0387609e-05
9.526764e-05
0.00011103465
9.9369484e-05
6.7527276e-05
4.0085523e-05
2.2465989e-05
1.4545475e-05
1.6940088e-05
2.5781498e-05
2.2370272e-05
2.196981e-05
2.3178863e-05
2.3058402e-05
2.0358548e-05
1.4835259e-05
1.0676308e-05
4.5657162e-06
1.0655871e-05
3.5056564e-05
7.0130469e-05
9.9119322e-05
8.6411576e-05
5.4826782e-05
3.6045505e-05
1.9371334e-05
1.2302517e-05
1.3702787e-05
1.9127117e-05
1.7156988e-05
1.5717658e-05
1.4832703e-05
1.2716768e-05
9.3453001e-06
5.4806302e-06
3.6262481e-06
8.3617047e-06
2.7417294e-05
6.318947e-05
5.7510485e-05
4.4230718e-05
3.6552321e-05
1.9132257e-05
9.2814437e-06
7.3943329e-06
1.0311122e-05
1.0116299e-05
8.7466305e-06
7.5526062e-06
5.679116e-06
4.324857e-06
1.7947264e-05
1.5864648e-05
3.0735e-05
3.6036165e-05
2.4728074e-05
1.2952889e-05
5.4339243e-06
5.4813439e-06
6.5075162e-06
6.1001442e-06
5.357492e-06
2.2165707e-06
7.26332e-06
1.450419e-05
1.2216055e-05
7.9732154e-06
2.8602117e-06
2.6268693e-06
5.4467424e-06
6.9711685e-06
5.9493643e-06
6.192668e-06
7.5890547e-06
7.9075011e-06
1.7240241e-05
1.5571268e-05
7.0775409e-06
1.2462424e-05
1.4027381e-05
1.4651684e-05
1.4812712e-05
1.3492488e-05
1.3848006e-05
1.6326404e-05
1.2089461e-05
1.734495e-05
3.4691992e-05
5.3653997e-05
2.2207369e-05
8.7874725e-06
4.0070547e-06
1.6480179e-05
2.3617729e-05
2.7486328e-05
2.8673916e-05
2.7902854e-05
2.6048334e-05
2.2930148e-05
1.9824927e-05
2.1416498e-05
1.7802257e-05
1.8499174e-05
3.3378679e-05
6.9167285e-05
7.1462468e-05
3.9364304e-05
1.8613174e-05
6.5508973e-06
2.6685927e-05
3.8172209e-05
4.4188128e-05
4.5220689e-05
4.3218018e-05
3.9691365e-05
3.5605812e-05
3.0919769e-05
2.7021276e-05
2.7595083e-05
2.2122216e-05
2.0453629e-05
3.5292119e-05
7.3732655e-05
8.9621445e-05
7.5960511e-05
4.4732478e-05
1.3195797e-05
8.6670864e-06
4.0149208e-05
5.9240638e-05
6.8726613e-05
6.9817617e-05
6.5685545e-05
5.9045205e-05
5.1747607e-05
4.4757269e-05
3.7948367e-05
3.4226647e-05
3.3298744e-05
2.4287428e-05
2.3415205e-05
4.4055435e-05
7.784274e-05
9.4125506e-05
9.3542325e-05
6.7507266e-05
3.3444997e-05
9.5725459e-06
8.4669744e-06
5.238459e-05
8.042023e-05
9.4732961e-05
9.6648429e-05
9.1195218e-05
8.2164974e-05
7.2067332e-05
6.1901736e-05
5.2585068e-05
4.4329667e-05
4.1017751e-05
3.7149131e-05
2.6325462e-05
3.1348325e-05
5.4740947e-05
7.7780464e-05
9.0993275e-05
9.5663217e-05
7.7754872e-05
4.841544e-05
2.1158861e-05
5.037718e-06
4.6228208e-05
9.2243295e-05
0.00011584427
0.00012000365
0.00011352717
0.0001027592
9.0512047e-05
7.855996e-05
6.7548397e-05
5.76505e-05
4.9238591e-05
4.6324704e-05
3.9296778e-05
2.866283e-05
3.8479369e-05
5.8618141e-05
7.2453787e-05
8.378231e-05
8.946221e-05
7.7364675e-05
5.4546941e-05
2.9442762e-05
1.3142744e-05
4.1670468e-06
2.3339656e-05
9.4634373e-05
0.00012454202
0.00013093808
0.00012502951
0.000113403
0.0001005136
8.828637e-05
7.7241514e-05
6.7344397e-05
5.851346e-05
5.1355539e-05
4.8742184e-05
3.9875275e-05
2.8097821e-05
4.1746523e-05
5.5815888e-05
6.5146324e-05
7.5145055e-05
7.9524225e-05
7.0941115e-05
5.3622536e-05
3.3213235e-05
1.8444627e-05
7.1420229e-06
7.7049102e-05
0.00011652779
0.00012925896
0.00012830861
0.00011905579
0.00010565105
9.191047e-05
7.9908154e-05
6.9986257e-05
6.177871e-05
5.5045913e-05
5.0112572e-05
4.7590463e-05
3.9065458e-05
2.843205e-05
4.0969875e-05
5.0568604e-05
5.8410923e-05
6.6460264e-05
6.8614981e-05
6.1976393e-05
4.8788926e-05
3.3341661e-05
2.1212968e-05
1.0036436e-05
4.5951838e-06
1.0064469e-05
6.9137845e-05
8.6922878e-05
9.4836618e-05
0.0001014331
0.00010143701
9.3754747e-05
8.235259e-05
7.1068568e-05
6.1584693e-05
5.4437555e-05
4.9835433e-05
4.6630501e-05
4.3178749e-05
3.7564947e-05
3.1360246e-05
3.8696491e-05
4.5721835e-05
5.2767201e-05
5.8228936e-05
5.8223689e-05
5.2491477e-05
4.2613041e-05
3.1539882e-05
2.20259e-05
1.1314257e-05
6.9356225e-06
2.4602437e-05
5.2265976e-05
4.8180717e-05
5.0526869e-05
5.9961777e-05
6.9957451e-05
7.3238549e-05
6.8939684e-05
6.0863393e-05
5.3549479e-05
5.0453842e-05
5.0336857e-05
4.7469337e-05
3.9779636e-05
3.5954761e-05
3.4962263e-05
3.7046835e-05
4.2403618e-05
4.8031001e-05
5.0765608e-05
4.9049875e-05
4.3822596e-05
3.6712609e-05
2.9020002e-05
2.1558517e-05
1.190784e-05
6.7549592e-06
2.6032131e-05
3.4804213e-05
2.4687824e-05
2.5903928e-05
2.9547338e-05
3.6478785e-05
4.232162e-05
4.454603e-05
4.4821539e-05