/*--------------------------------*- C++ -*----------------------------------*\
| =========                 |                                                 |
| \\      /  F ield         | OpenFOAM: The Open Source CFD Toolbox           |
|  \\    /   O peration     | Version:  2406                                  |
|   \\  /    A nd           | Website:  www.openfoam.com                      |
|    \\/     M anipulation  |                                                 |
\*---------------------------------------------------------------------------*/
FoamFile
{
    version     2.0;
    format      ascii;
    arch        "LSB;label=32;scalar=64";
    class       volScalarField;
    location    "300";
    object      p;
}
// * * * * * * * * * * * * * * * * * * * * * * * * * * * * * * * * * * * * * //

dimensions      [0 2 -2 0 0 0 0];

internalField   nonuniform List<scalar> 
150387
(
0.0034273566
0.0049059968
0.0047723695
0.00473355
0.0047394191
0.0043910357
0.0047049955
0.0059905313
0.005820099
0.0054242197
0.0051380531
0.0048698606
0.0047252828
0.0046280311
0.0046140184
0.0046499304
0.0041534368
0.0040349296
0.0048511772
0.0066126195
0.0079121626
0.006426571
0.0058605168
0.0052888253
0.004893635
0.004604879
0.0044545363
0.004395814
0.0044260076
0.0045272767
0.003921146
0.0034710442
0.0036339262
0.0045678
0.0059505186
0.0073516872
0.0074147902
0.0076754738
0.0071748164
0.0064122377
0.0055272777
0.0048345506
0.0043904455
0.0041519379
0.0040436422
0.004036037
0.0041246913
0.0042835535
0.0037211733
0.0030759869
0.0028779295
0.0032447752
0.0043492877
0.0059158377
0.0070766596
0.0071471738
0.0088477027
0.0084774084
0.0073458776
0.005984588
0.0048451771
0.004110344
0.0037054862
0.0035264744
0.0035062565
0.0035834499
0.0037373768
0.0039260611
0.0035415128
0.0028793919
0.0025152682
0.0025303642
0.0031223262
0.0044334141
0.0060198734
0.0065003284
0.0063188239
0.0095578136
0.0082141394
0.0062495921
0.0047235931
0.0036534907
0.003054672
0.002825345
0.0028203608
0.0029332078
0.0031077444
0.0033222219
0.0035285818
0.0033451543
0.0027885873
0.0023732573
0.0021900282
0.0024116851
0.0033293899
0.0047605682
0.005673246
0.0057318231
0.0056581989
0.010256774
0.0086410227
0.006348046
0.0042579886
0.0029012019
0.0022064369
0.0019926202
0.002054236
0.0022454981
0.002482804
0.0027301103
0.0029773264
0.0031910351
0.0031522493
0.0027512402
0.0023676685
0.0020972189
0.0021075986
0.0026949139
0.0038195419
0.0047839796
0.0051729181
0.0053354192
0.0053214602
0.010289389
0.0088443692
0.0060925142
0.0036941914
0.002171545
0.0014430529
0.001248051
0.0013704191
0.0016423647
0.0019539639
0.0022502369
0.002516317
0.0027567588
0.0029572868
0.0029960245
0.0027401848
0.0024274444
0.0021483784
0.0020623102
0.0024191845
0.0032265127
0.0041077345
0.0046039909
0.0048954379
0.0049700888
0.0098128625
0.0067139764
0.0039061324
0.0020934992
0.0011979889
0.00091516516
0.0010099478
0.0012963418
0.0016401748
0.0019657267
0.0022425143
0.0024717858
0.0026672636
0.0028308938
0.0028969345
0.0027474728
0.0025119648
0.0022690662
0.0021605288
0.0023817725
0.0029528297
0.0036781832
0.0042085715
0.004571118
0.0047106983
0.0048218259
0.0073848497
0.0041153202
0.0021585371
0.0012219723
0.00090794708
0.00096724251
0.001230457
0.0015654836
0.001888627
0.0021616775
0.0023747473
0.002538672
0.0026694878
0.0027850708
0.0028505013
0.0027684534
0.0026004984
0.002411864
0.0023207993
0.0024718763
0.0028912573
0.0034650465
0.0039805802
0.004346699
0.0045189871
0.0045980091
0.0082945717
0.0050893269
0.002979946
0.0018194844
0.0013595566
0.0012891289
0.0014411463
0.0016943298
0.0019662662
0.0022075531
0.0024001898
0.0025428289
0.0026449856
0.0027109484
0.0027814213
0.0028426341
0.0028003861
0.0026860706
0.0025531188
0.0024965728
0.0026197026
0.0029481161
0.0034100137
0.0038664134
0.0042031875
0.0043708276
0.0044602123
0.0068145269
0.0041772353
0.002899579
0.0022176552
0.0019788023
0.0019645127
0.0020608854
0.0021992708
0.0023432398
0.0024723677
0.0025814538
0.002673348
0.0027413267
0.0027477336
0.0027923063
0.0028613637
0.0028446745
0.0027706957
0.0026875246
0.0026689412
0.0027882052
0.0030662513
0.0034580496
0.0038543403
0.0041523836
0.00430089
0.0043695095
0.0043832194
0.0054494516
0.0037978977
0.0032289208
0.0029258865
0.0027898125
0.0026983033
0.0026297077
0.0025912981
0.002592366
0.0026206673
0.0026758364
0.0027475449
0.0028027393
0.0027647594
0.0028394564
0.0029039934
0.002898801
0.0028542392
0.0028120206
0.0028286902
0.0029569022
0.0032140592
0.0035692384
0.0039301313
0.0041968731
0.0043066476
0.0043175816
0.0043228584
0.0045294889
0.0040986568
0.0039825635
0.003904191
0.0037215856
0.0034250576
0.003089698
0.0028262965
0.0026778846
0.0026390453
0.0026820988
0.0027636154
0.0028419559
0.0028398475
0.0029713217
0.0029664593
0.0029593852
0.0029350635
0.0029230509
0.0029659895
0.0031036913
0.0033521024
0.0036959649
0.0040479275
0.0042906999
0.004333846
0.0042466888
0.0042530913
0.0046464413
0.0048205709
0.0048903128
0.0046290982
0.0041347474
0.0035423068
0.0030296413
0.0026813295
0.0025213515
0.0025143544
0.0026046696
0.0027282028
0.002838178
0.0028714125
0.0029610648
0.0029829238
0.0029839227
0.0029711348
0.0029702419
0.0030092976
0.0031076711
0.0032568406
0.0034135159
0.0035369359
0.0036080569
0.0036222528
0.0036415907
0.0038753766
0.0050098248
0.0050239877
0.0048534661
0.0044584317
0.0038944872
0.0032523699
0.0027060213
0.0023606622
0.0022455629
0.0023096813
0.0024749895
0.0026588566
0.0028123219
0.0028666414
0.0029035442
0.0029193102
0.0029139498
0.00288687
0.0028532098
0.0028255289
0.0028110477
0.0028091852
0.0028205892
0.002860558
0.0030092746
0.003322917
0.0039243978
0.0043957824
0.0050387893
0.0049894627
0.0047646696
0.0043376351
0.0037152881
0.0029912181
0.0023692041
0.0019948422
0.0019114299
0.00204773
0.0022945107
0.0025433046
0.0027303268
0.002814754
0.0028325525
0.0028178548
0.0027718669
0.0026983723
0.002605606
0.0025021114
0.0024006878
0.0023226484
0.0023120657
0.002433088
0.0027994534
0.0034560823
0.0043989634
0.0047182637
0.0051811679
0.0051088576
0.0048708082
0.0044110089
0.0037263608
0.0028673699
0.0020934294
0.0016233114
0.0015333375
0.0017273406
0.0020551635
0.0023786128
0.0026171547
0.0027325123
0.0027468866
0.0026988978
0.0026022564
0.0024692194
0.00231165
0.002146019
0.002003049
0.0019328498
0.002011449
0.0023350858
0.0030811157
0.0043773802
0.0059380051
0.0053513141
0.0051663235
0.0046962625
0.0040026215
0.0029756138
0.0019499611
0.001292304
0.0011365441
0.0013551051
0.0017550267
0.0021668925
0.002495366
0.0026778916
0.0027070779
0.0026248264
0.0024782685
0.0022925
0.0020863323
0.0018918723
0.0017684493
0.0018063679
0.0021201622
0.0028265005
0.0041157206
0.0060930323
0.0077667541
0.0056531972
0.0056347928
0.0052730388
0.0046041594
0.0034551514
0.0020729871
0.0011006762
0.00078850106
0.00096510635
0.0014088998
0.0019137295
0.002362367
0.0026629027
0.0027619493
0.0026615449
0.002481499
0.0022745517
0.0020701144
0.0019164132
0.0018978542
0.0021289458
0.0027629443
0.0039358586
0.0055448713
0.0071549919
0.0079895052
0.0062757099
0.0061152344
0.0056221181
0.0044369113
0.0026601686
0.0012056324
0.0006178924
0.0006367819
0.0010643406
0.0016452338
0.0022243741
0.002674611
0.0029406864
0.0028668608
0.0026819039
0.0025032782
0.0023766213
0.0023712371
0.0026059452
0.003205913
0.0042735814
0.0057244628
0.0071962166
0.0074531179
0.0066153858
0.0069269657
0.0069730129
0.0059005284
0.0038969274
0.0018096567
0.00080504948
0.00049998183
0.00081211901
0.0014158785
0.0021033477
0.0027208688
0.0032175761
0.0032458564
0.0030837054
0.0029709286
0.0029742666
0.003188512
0.0037276504
0.0046454638
0.0058964201
0.0070098789
0.0078203503
0.0073612224
0.0075732994
0.0082133283
0.0078316154
0.0058866311
0.0031598525
0.0015787303
0.00072949594
0.00078076379
0.0013134658
0.0020414586
0.0027883892
0.0035136929
0.0037441918
0.0036079083
0.0035596117
0.0036794092
0.0040288703
0.0046359993
0.0054499207
0.0062739176
0.0069983058
0.0074843818
0.0089154278
0.0094523299
0.0082706499
0.0053558197
0.003242408
0.0015412832
0.0011276847
0.0014551105
0.0021043791
0.0028626619
0.0037104006
0.0042221899
0.0040996506
0.0040855967
0.0042200894
0.0045117309
0.0049879923
0.0054960809
0.0061246795
0.0065649799
0.010024064
0.010259052
0.0080692814
0.0059470144
0.0032977118
0.0021097339
0.0020474389
0.0024321928
0.003018532
0.0037955316
0.0045349756
0.0044450645
0.0044432566
0.0045680732
0.0048131099
0.0051780088
0.0055306576
0.0058899541
0.010097776
0.0099106308
0.0091918895
0.0061476861
0.0039373063
0.0031900189
0.0030804871
0.0033447552
0.0038193082
0.0045585516
0.0045867858
0.0045979339
0.0047092938
0.0049350972
0.0052073688
0.0053887883
0.010344864
0.009554867
0.0068739633
0.0054276715
0.0045180283
0.0041146367
0.0039995905
0.0044010065
0.0045997099
0.0046581747
0.0047621224
0.0049274304
0.006801712
0.0060254991
0.0050393115
0.00439594
0.0044430696
0.0045648644
0.0051574003
0.0050155317
0.0049210204
0.0047459226
0.0047068657
0.0046730408
0.0044894343
0.0045701494
0.0052468334
0.005767136
0.0052532555
0.005004303
0.0047610915
0.0046388361
0.004545784
0.0045292846
0.0044391752
0.003942168
0.0037124839
0.0039612051
0.0052714454
0.006813085
0.0067678612
0.0064660889
0.0063270657
0.0055505014
0.0050518284
0.0047125273
0.0044596821
0.0043362308
0.0042925129
0.0043034265
0.0042075369
0.0035345176
0.003193271
0.0031752281
0.0037937478
0.0048175246
0.0064747234
0.0068227741
0.0072720743
0.0066283237
0.0059330364
0.0049981531
0.0044347281
0.0041117495
0.0039353095
0.003884822
0.0039078897
0.003972198
0.0039276181
0.0032631739
0.0027517331
0.0024768213
0.0026819654
0.0035014679
0.0050088058
0.006082247
0.0068180557
0.0081465308
0.0075211409
0.0064611994
0.0050963006
0.0041650583
0.0036107114
0.0033400333
0.0032697522
0.0033270903
0.0034437217
0.0035772579
0.0036120973
0.0031403443
0.002620547
0.0022153069
0.0020880574
0.0024215853
0.0036970959
0.0053685669
0.0059410206
0.0062008877
0.008805754
0.0079864252
0.0068151864
0.0047764654
0.0035733184
0.0027909265
0.0024676447
0.0024462751
0.0025770867
0.0027688651
0.0029786212
0.0031777777
0.0032805209
0.0030282327
0.0025947919
0.0021431913
0.0018389583
0.0018825239
0.0027737959
0.0041175176
0.0053058131
0.0054253896
0.0056151501
0.0087084518
0.006536064
0.0043676032
0.0027578193
0.0018525414
0.0015249443
0.0015729571
0.0018013725
0.0020884607
0.0023766278
0.0026415491
0.0028709607
0.0030120902
0.0029337058
0.002617475
0.0021811937
0.0018241468
0.001734701
0.0023063587
0.0034017294
0.0044541495
0.0050272365
0.0052856101
0.005004289
0.0089583724
0.0063676309
0.004161122
0.0021680475
0.001114789
0.00076205604
0.00083782638
0.0011421657
0.0015188025
0.0018833611
0.0022009722
0.0024676344
0.0026856457
0.0028344178
0.0028591909
0.002651423
0.0022710141
0.0019428717
0.0018092925
0.0021632689
0.0029568076
0.0038872768
0.0044594115
0.0048232174
0.0049502135
0.0070616227
0.0043835773
0.0022061182
0.0010141286
0.00055824765
0.00056512742
0.00083732415
0.00122288
0.0016123738
0.0019543396
0.0022304112
0.0024493921
0.0026197885
0.0027525406
0.0028156039
0.0026872825
0.002381472
0.0021197351
0.001995434
0.0022262594
0.0027961428
0.0035592898
0.0041317009
0.0045413048
0.0046442129
0.004711135
0.0077268737
0.00444455
0.0025579936
0.0011676884
0.00067534156
0.00063958322
0.00086360045
0.0012052248
0.0015698288
0.0018985891
0.0021697958
0.0023739249
0.0025249252
0.0026325403
0.0027379712
0.0027995997
0.0027224528
0.0024958675
0.0023061595
0.0022168859
0.0023869473
0.0028142003
0.0034169895
0.0039495615
0.0043441005
0.0045008826
0.0046342434
0.0064818516
0.0032921642
0.0022265168
0.0013894163
0.0012073836
0.0012814435
0.001488069
0.0017428875
0.0020005237
0.0022295015
0.0024148465
0.0025441785
0.0026340608
0.002677056
0.0027514892
0.0028058013
0.0027555192
0.0026052608
0.0024784664
0.002433035
0.0025780014
0.0029209588
0.0034054816
0.0038624852
0.0041999345
0.0043547022
0.0044428246
0.0059528413
0.0031695044
0.0025445966
0.0020723682
0.0020084572
0.0020645838
0.0021702408
0.0022851495
0.0024011115
0.0025080989
0.0026035655
0.0026694596
0.0027067146
0.0027208343
0.0027752153
0.0028359277
0.0028034625
0.0027146229
0.0026396747
0.0026355511
0.0027753108
0.003067411
0.0034760616
0.0038677467
0.0041549614
0.0042920305
0.0043485266
0.0043920782
0.0048185978
0.0033721553
0.0030740164
0.0028502058
0.0027568132
0.0026706682
0.0026029275
0.0025628722
0.0025702407
0.0026131047
0.002682466
0.0027500427
0.002811293
0.0027721943
0.0028267369
0.0028846752
0.0028604152
0.0028076323
0.0027706083
0.0027998213
0.0029440303
0.0032088983
0.0035664508
0.0039142918
0.0041567929
0.0042361736
0.0042677064
0.0042997071
0.004296424
0.003997009
0.0038543391
0.0037048773
0.0034495933
0.0031106343
0.0028067289
0.0026045783
0.0025330638
0.0025594245
0.0026494611
0.0027433349
0.0028441081
0.0028489843
0.0029653372
0.002966159
0.0029543336
0.0029159383
0.002896859
0.0029337713
0.0030629417
0.0032831522
0.0035649328
0.0038189662
0.0039684889
0.0040255869
0.0040160614
0.0041714635
0.0045881518
0.0046893879
0.0045391113
0.0041765282
0.0036679583
0.0031139027
0.0026785413
0.002420484
0.0023525803
0.0024162931
0.0025540846
0.0026938031
0.0028202129
0.0028763898
0.0029829302
0.0029974122
0.0029678219
0.0029417229
0.0029277076
0.0029458682
0.002999596
0.0030745385
0.0031471779
0.0031847578
0.0032343752
0.0033671452
0.003588295
0.0038661171
0.0049123666
0.0048481979
0.0045956968
0.004129985
0.0035209746
0.0028669908
0.0023731061
0.0021076107
0.0020789888
0.0022057932
0.0024144309
0.0026110182
0.0027886529
0.0028553603
0.0028954303
0.0028754305
0.002849647
0.002802858
0.0027534934
0.0027027557
0.0026545143
0.0026071087
0.0025697963
0.0025750941
0.0028016231
0.0031908276
0.0037078656
0.0040770179
0.0050562361
0.0048950831
0.0046219269
0.0040922896
0.0033852706
0.0026120603
0.0020225278
0.0017228898
0.0017302263
0.0019298955
0.0022173398
0.0024812052
0.0026852161
0.0027724377
0.0027848477
0.002748537
0.0026679543
0.0025563769
0.0024247422
0.0022840363
0.0021526319
0.0020557381
0.0020450055
0.0021700343
0.0026318375
0.0031435116
0.0041084972
0.0051731188
0.005078701
0.00479839
0.0041999822
0.0033887347
0.0024305979
0.0016853864
0.0012971293
0.0013161509
0.0015842028
0.0019617482
0.0023112492
0.0025818956
0.0026903
0.0026828192
0.0026079986
0.0024757859
0.0023007314
0.0020961224
0.001880625
0.0016938379
0.0015948681
0.0016663274
0.0019808012
0.0027589181
0.0037001457
0.0049754721
0.0052928154
0.0051073375
0.0044980133
0.0036416963
0.0024423685
0.0014370311
0.00088058663
0.0008625741
0.0011746151
0.0016450133
0.002095937
0.0024686431
0.0026368647
0.0026275146
0.0025195997
0.0023418647
0.0021117234
0.0018530458
0.0016050447
0.0014399634
0.0014619808
0.0017931106
0.0025338158
0.0037915986
0.0053248808
0.0062510042
0.0056793544
0.005585785
0.0050549552
0.0042181072
0.0028033396
0.0014132696
0.00057088722
0.00043394914
0.00073296811
0.0012857475
0.0018458403
0.0023500294
0.0026186113
0.0026598537
0.002539419
0.0023404329
0.002092955
0.0018342592
0.001622395
0.0015531811
0.0017483708
0.0023736915
0.003578074
0.0049635421
0.0062992587
0.0066411472
0.0060684013
0.006343146
0.0059850152
0.0051849887
0.0036649947
0.001823017
0.00053294778
0.00015995008
0.00033648045
0.00093115846
0.0015926455
0.0022320015
0.0026483002
0.0028211488
0.002737607
0.0025548887
0.0023541819
0.002184886
0.0021370157
0.0023342981
0.0028920644
0.0039194805
0.0052702359
0.0066170372
0.0070416234
0.0064879151
0.0066894278
0.0065867138
0.0049626884
0.0028520153
0.0009749582
0.00020571921
0.00010001683
0.00065701234
0.001374624
0.0021246
0.0027024762
0.0030872123
0.0031081953
0.0029782006
0.0028700086
0.0028503041
0.0030362667
0.0035348814
0.0043223916
0.005596792
0.0062950914
0.007401084
0.0074566589
0.0076549779
0.0070441432
0.0045843994
0.0021723207
0.00078205428
0.0001771054
0.00057556806
0.0012633224
0.00206384
0.0027647109
0.0033873527
0.0035899952
0.0035361349
0.0035328948
0.0036530494
0.0039869932
0.0045695334
0.005411174
0.006030698
0.0066917951
0.0069992138
0.0085509607
0.0082448846
0.0067907478
0.0042996704
0.002146809
0.00076662707
0.00081184269
0.0013439635
0.0020928713
0.0028189132
0.0035898663
0.0040177692
0.0040310597
0.0040928359
0.0042451729
0.0045467086
0.005077394
0.0054385716
0.006004277
0.0062398227
0.0094207963
0.0088820287
0.0065665652
0.00444159
0.0022546042
0.0017206628
0.0019151023
0.0024115252
0.0029889245
0.0036935336
0.0043110403
0.0043846744
0.0044716515
0.0046326732
0.004886486
0.0053192765
0.0055232125
0.0057071536
0.0091304231
0.0089224402
0.0071592882
0.0043612521
0.0028705735
0.0026402893
0.0028231876
0.0032662152
0.0037808374
0.0043952928
0.0045068728
0.0046118599
0.0047195816
0.0049272727
0.0053263959
0.0086630823
0.0077422187
0.0057805684
0.00467875
0.0040046651
0.003917052
0.0039556496
0.0043098596
0.0045508608
0.004638158
0.0047588983
0.0048474411
0.0056330442
0.0049073639
0.0044474041
0.0042630554
0.0043868586
0.0050780192
0.0049668165
0.0048923049
0.0046970166
0.0046572769
0.0046314934
0.0045874846
0.004457836
0.0044815417
0.0056348056
0.005142044
0.0049410285
0.0047127184
0.0045934207
0.0044704889
0.0044221485
0.0043156413
0.0039113481
0.0035712792
0.0034675992
0.0043274656
0.0056329942
0.0057021862
0.0061520959
0.0061499514
0.0053879218
0.0049199209
0.0046225571
0.0043808729
0.0042486703
0.0041819964
0.0041446772
0.0040065796
0.0034931228
0.0030790409
0.0027891074
0.0031428859
0.0038616624
0.005541895
0.0058552634
0.0067214357
0.0061475202
0.0056165473
0.0046954626
0.0041958202
0.0039214155
0.0037717451
0.003738413
0.0037595229
0.0037747714
0.0036758426
0.003143105
0.0025955637
0.002127098
0.0021261666
0.0027459267
0.0041518849
0.0052326963
0.0062820845
0.0073056566
0.0067238459
0.0058579088
0.0045368056
0.0037007762
0.003227495
0.0030398044
0.0030347642
0.0031345099
0.0032624495
0.0033593034
0.0033500383
0.0029555374
0.0024241725
0.0018824481
0.0015847997
0.0017828451
0.002932356
0.0047420836
0.0054013252
0.0059096517
0.0074479866
0.0067147481
0.0058605568
0.0038498866
0.002789552
0.0021497021
0.0019755935
0.0020807122
0.0023057907
0.0025563607
0.0027881518
0.0029662963
0.0030414205
0.0028250032
0.0023833233
0.0018583647
0.0014056991
0.0013454323
0.0021254317
0.0034990324
0.0049037094
0.0051143944
0.0054749488
0.007263845
0.0051885252
0.0031731098
0.0017491605
0.0010409564
0.00088982897
0.0010980268
0.001451927
0.0018291906
0.0021748074
0.0024655645
0.0026862683
0.0028133836
0.0027551906
0.0024233388
0.001954832
0.0014779497
0.0012986436
0.0017777878
0.0028712214
0.0040869024
0.0048293225
0.0051854427
0.00479232
0.007143924
0.0047656805
0.0028721554
0.0010923539
0.00022833263
5.3988126e-05
0.00029183559
0.00073353547
0.0012185569
0.0016615958
0.002028498
0.0023183733
0.0025346374
0.0026768902
0.0027182104
0.002493275
0.0020925482
0.0016747315
0.0014662968
0.0017452421
0.0025251907
0.0035750201
0.004265819
0.0047307048
0.0048900635
0.0052552374
0.0029925519
0.0011103263
0.00010204738
-0.00019101475
-2.0714534e-05
0.0003970885
0.00089989528
0.0013767025
0.00177942
0.0020926335
0.0023291521
0.0025011948
0.0026285237
0.0027092192
0.0025691092
0.0022377012
0.0019168285
0.0017332801
0.0019101487
0.0024650065
0.0033005203
0.0039765782
0.004463561
0.0045802965
0.0046517551
0.0055113298
0.0031451385
0.0016299124
0.0004127086
6.4088001e-05
0.00014440428
0.0004710686
0.00090085999
0.0013399555
0.0017264134
0.0020377948
0.002264859
0.0024264547
0.0025382692
0.0026409077
0.00271213
0.0026317354
0.0023777867
0.0021506001
0.0020170118
0.0021495136
0.0025648394
0.0032109382
0.0038190077
0.0042898699
0.0044676123
0.0046153104
0.0049840118
0.0025440045
0.0016412341
0.00091094876
0.00082164374
0.00097292018
0.0012432098
0.0015492406
0.001850005
0.0021095912
0.0023137866
0.0024518523
0.002547814
0.0025990119
0.0026747783
0.0027264729
0.0026749858
0.0025059795
0.0023533372
0.0022756127
0.0023928903
0.0027275305
0.0032360889
0.0037396976
0.0041413806
0.0043210177
0.0044059913
0.0048103379
0.0026648686
0.0020680522
0.0016724524
0.0016678597
0.0017763251
0.0019428327
0.0021135914
0.0022708179
0.002400474
0.0025067101
0.0025808205
0.0026238894
0.0026570353
0.0027109996
0.0027651252
0.0027266193
0.0026256578
0.0025307015
0.0025013445
0.0026185421
0.0029012493
0.0033239432
0.0037484689
0.004073742
0.0042449257
0.0042993525
0.0043594647
0.0041492706
0.0031835741
0.0028466233
0.0026018019
0.0024967403
0.0024256196
0.0023964972
0.0023988414
0.0024423156
0.0025070358
0.0025925932
0.0026671579
0.0027373332
0.0027257529
0.0027736528
0.0028202549
0.0027857452
0.0027221092
0.0026647364
0.0026679184
0.002785744
0.0030313921
0.0033863815
0.0037509191
0.0040178371
0.0041364525
0.0041932201
0.0042545324
0.0041538233
0.0039410926
0.0036785676
0.0034384618
0.0031412561
0.002813594
0.0025577841
0.0024132437
0.0023912451
0.0024499382
0.0025614458
0.0026650652
0.0027752867
0.0028275685
0.0029155713
0.002911769
0.0028879376
0.0028316307
0.0027867948
0.002791267
0.0028888975
0.0030825683
0.0033530585
0.0036247093
0.0038223491
0.0039580052
0.0039856554
0.0041100208
0.0045774278
0.0045037359
0.0042595812
0.003861603
0.0033377858
0.0028053219
0.0024185161
0.0022184793
0.0022046987
0.0023060251
0.0024659728
0.0026153835
0.0027496862
0.002854498
0.002958923
0.0029634505
0.0029048648
0.0028615621
0.0028250883
0.0028152145
0.0028373184
0.0028895253
0.0029687327
0.0030606124
0.0032004123
0.0034178081
0.0036426927
0.0040427881
0.0048019483
0.0047178984
0.0044025034
0.0038880603
0.0032375567
0.0025754687
0.0021085844
0.0018896913
0.0019107186
0.0020760369
0.0023113121
0.0025167486
0.0027078962
0.0027720663
0.002828006
0.0028069295
0.0027734301
0.0027119091
0.002642065
0.0025589689
0.0024658016
0.0023757208
0.0023305399
0.0023631236
0.002632226
0.0030568476
0.0035609951
0.0039058759
0.0049830645
0.0048058352
0.0044871399
0.0038754143
0.0030982463
0.002289238
0.0017131946
0.001458685
0.0015215906
0.0017685548
0.0020910867
0.0023721066
0.0025845113
0.0026797643
0.0027018943
0.0026672266
0.0025764128
0.0024435036
0.0022830033
0.0021071992
0.0019393608
0.0018056076
0.0017632551
0.0018797833
0.0023658449
0.0028701453
0.0037704501
0.0051208487
0.0049986123
0.0046908616
0.0039848272
0.0030565331
0.0020269916
0.0012925478
0.00095406587
0.0010429876
0.0013755984
0.0018049786
0.0021861114
0.0024680119
0.002582274
0.0025812368
0.0025068761
0.0023614692
0.0021585246
0.001914177
0.0016465712
0.0013990476
0.0012389575
0.0012620661
0.0015543157
0.0023034956
0.0030396876
0.0040479471
0.0051774868
0.0049735121
0.0042533263
0.0032409046
0.0019185172
0.00092308286
0.0004275
0.00049671408
0.00090029388
0.0014462745
0.0019479184
0.0023374835
0.002508097
0.0025008595
0.0023937601
0.0021965575
0.001928894
0.0016151191
0.0012949165
0.0010418657
0.00096317772
0.0012021151
0.0018649811
0.0029905338
0.0042548154
0.0048796426
0.0055951753
0.0054303079
0.0047528433
0.0037436567
0.002132436
0.00074054836
-2.2599036e-05
-5.6192628e-05
0.00037395928
0.0010347661
0.0016651801
0.002190081
0.0024594635
0.0024940157
0.0023738721
0.0021550218
0.0018605998
0.0015326465
0.0012370357
0.0010740927
0.0011699621
0.0016984169
0.0027784561
0.0039614698
0.0051874702
0.005253913
0.0059926811
0.0061716455
0.0056777759
0.0046244068
0.0028483813
0.00096605316
-0.00022554692
-0.00048477133
-0.00012185385
0.00062308781
0.001375333
0.0020321633
0.0024520505
0.0026084917
0.0025272688
0.0023336237
0.0020842314
0.0018369637
0.0016851721
0.0017700505
0.0022004928
0.0031090454
0.0043718417
0.0056716821
0.0061944321
0.0062105438
0.0062189433
0.0059822912
0.0040056333
0.001790682
3.7748776e-05
-0.00060860268
-0.00046791237
0.00028548623
0.0011169971
0.001878582
0.0024753222
0.0028348536
0.0028631291
0.002741501
0.0025930641
0.0024980604
0.0025865626
0.002988329
0.0036892698
0.004944389
0.0054299469
0.0067297281
0.0070498682
0.0068626554
0.0060565952
0.0033336137
0.0010447923
-0.00020231874
-0.00050325485
0.00012965393
0.00096079748
0.0017832698
0.0025330637
0.0031334789
0.0033405369
0.0033210947
0.0033033662
0.0033866421
0.0036768144
0.0042245367
0.0050276685
0.005520477
0.0061933952
0.0063108575
0.0078646475
0.0069398446
0.0053998929
0.0029610219
0.00096163819
-5.8264924e-05
0.00026754557
0.00097820189
0.00178139
0.0026111332
0.0033856988
0.0037961816
0.0038658723
0.0039385437
0.004089455
0.0043763587
0.0049089703
0.0051658347
0.0057595214
0.0058670662
0.0083587099
0.0074253099
0.0049315034
0.0029711161
0.0011601922
0.0010102157
0.0014469056
0.0020661446
0.0028197849
0.0035860074
0.0041355568
0.0042750341
0.00440302
0.0045608213
0.0048116956
0.0052320116
0.005416534
0.0054813339
0.0075403012
0.0073022258
0.0052724019
0.0028678712
0.0019522051
0.0020456633
0.0024872368
0.0031304481
0.0037788457
0.0043036271
0.0044382198
0.0045678252
0.0046574351
0.0048902789
0.0053291322
0.0062787872
0.0056953901
0.004268148
0.0035791322
0.0034368874
0.0036816186
0.0039382735
0.0042741473
0.0044801164
0.0045923604
0.0047202
0.0047862619
0.0042001658
0.0040410387
0.0040722245
0.0042127032
0.004454515
0.0049925857
0.0049062756
0.0048365405
0.0046394002
0.0046031871
0.0046087598
0.0045612126
0.0042344113
0.0039256669
0.0054731345
0.0049966688
0.0048607168
0.0046414779
0.0045371451
0.0043929597
0.0043154727
0.004182435
0.0037303592
0.0032519803
0.0028991691
0.0033782197
0.0044313664
0.0045155516
0.0057270838
0.0059001329
0.0051517076
0.0047203055
0.0044830569
0.0042642608
0.0041414289
0.0040570176
0.0039869325
0.0038064271
0.0033218713
0.0028348015
0.0023794198
0.0024275866
0.002787504
0.0044537131
0.0047560439
0.0060100847
0.005476013
0.0051253254
0.0042237028
0.003817719
0.0036139185
0.0035190617
0.0035275974
0.0035635588
0.0035576859
0.0034075194
0.0029046147
0.0023518098
0.0017551358
0.0014737008
0.0018368194
0.0030433557
0.0041848392
0.0055700597
0.006200335
0.0056610352
0.0049988488
0.0037365699
0.003015815
0.0026605789
0.0025960842
0.0026917129
0.0028606588
0.0030186182
0.0030989172
0.0030364986
0.0026515712
0.0021327737
0.0014891853
0.00095592279
0.00092470686
0.0019184281
0.0038630481
0.0046768665
0.0054864504
0.0058658311
0.0051325221
0.0045519039
0.0025664378
0.0016788166
0.0012269717
0.0012558336
0.0015344408
0.001893452
0.0022332468
0.0025069292
0.0026787421
0.0027088143
0.0024814598
0.0020511028
0.0014322893
0.00081402483
0.00055725323
0.0012174821
0.0026198488
0.0043240578
0.0046733409
0.0052597318
0.0055342212
0.0034416868
0.0016094184
0.00036668481
-0.00012011644
-4.8296106e-05
0.00037250075
0.00090235432
0.0014118278
0.0018445082
0.0021792849
0.0023989501
0.0024912308
0.0024086101
0.0020895115
0.0015464446
0.00095812051
0.00061908106
0.0010002963
0.0021066958
0.0035439173
0.0045127072
0.0050400725
0.0045956267
0.0051942196
0.0028896098
0.0012654029
-0.00033298408
-0.0010154328
-0.00098902796
-0.00054884274
7.9690932e-05
0.00071548953
0.0012719457
0.0017145397
0.0020446819
0.0022629804
0.0023809584
0.0023998236
0.0021768579
0.0017378044
0.001230246
0.0009080353
0.0011103008
0.0018890919
0.0030985782
0.0039589763
0.004591016
0.0047950884
0.0033870702
0.0014322885
-0.00017189967
-0.001046568
-0.0011874061
-0.00085178594
-0.00028109454
0.00035788009
0.00094689944
0.0014360461
0.0018085326
0.0020781983
0.002255091
0.0023674171
0.0024382171
0.0022884365
0.0019349723
0.0015483943
0.0012881575
0.001411018
0.0019630561
0.0029064457
0.0037155352
0.0043433398
0.004493342
0.0045902206
0.0036408858
0.0018004449
0.00060521171
-0.00043631235
-0.00072844967
-0.00055765191
-0.00013786241
0.000378055
0.0009026204
0.0013651913
0.0017388124
0.0020095868
0.0021975832
0.0023181283
0.00241332
0.0024829115
0.0023948535
0.0021146728
0.0018466138
0.001663531
0.0017621638
0.002179947
0.0028994022
0.0036016053
0.0042035666
0.0044205953
0.0045843921
0.0035520899
0.0017100598
0.001019773
0.0003464154
0.00029094346
0.00046365486
0.00078002226
0.0011442151
0.0015011071
0.001808677
0.0020535269
0.0022202945
0.0023381677
0.0024028469
0.0024806769
0.0025240115
0.0024668947
0.0022758925
0.0020963518
0.0019873433
0.002085187
0.0024253136
0.0029853932
0.0035517751
0.004057193
0.0042698605
0.0043636479
0.0037012478
0.0021361338
0.0016783081
0.0013008595
0.0012614734
0.0013509976
0.0015352196
0.0017441008
0.0019488713
0.0021224894
0.0022610784
0.0023599079
0.0024236122
0.0024803572
0.0025445131
0.0025830226
0.0025345048
0.0024155451
0.0023011666
0.0022515793
0.0023580683
0.0026478389
0.0031103572
0.0035786826
0.0039750131
0.0041904905
0.0042419628
0.0043031199
0.0036172724
0.0029570802
0.0026165522
0.0022984348
0.002122499
0.0020150881
0.001994204
0.0020350746
0.0021322636
0.0022407179
0.0023618215
0.0024621535
0.0025701848
0.0025893186
0.0026476474
0.0026508468
0.0025980941
0.0025165036
0.0024384482
0.0024226861
0.0025303323
0.0027809446
0.003167256
0.0035724256
0.0038908795
0.0040473842
0.0041163756
0.004201571
0.0038892965
0.0037865212
0.0034307947
0.0030956945
0.0027286966
0.0023783344
0.0021462736
0.0020499497
0.0020867947
0.0021928368
0.0023405603
0.0024673494
0.0026196662
0.0027129779
0.0027927135
0.0027509514
0.0027038303
0.0026204454
0.0025432351
0.0025198167
0.0026002315
0.0027933821
0.0030911345
0.0034136111
0.0036802922
0.0038861379
0.0039521733
0.004070456
0.0045317666
0.0043493477
0.0040011372
0.0035275571
0.0029458793
0.0023873828
0.002017069
0.0018575968
0.0018952462
0.0020407156
0.0022374005
0.0024117499
0.0025926141
0.0027469826
0.0028377315
0.0028155279
0.0027204816
0.0026479727
0.0025761861
0.0025278744
0.0025221362
0.0025779726
0.0027084905
0.0028835039
0.0031204678
0.0033816073
0.0036337924
0.0040850074
0.004695703
0.0045975247
0.0042040329
0.0035950432
0.0028723569
0.0021600998
0.0016944882
0.0015068525
0.0015752744
0.0017836334
0.0020567732
0.0022842533
0.0025034688
0.0025721407
0.0026440674
0.0026176713
0.002567051
0.002478662
0.0023728944
0.0022476674
0.0021314945
0.0020556799
0.0020699253
0.0021952493
0.0025262682
0.0028921461
0.0034192685
0.0037223792
0.0048920923
0.0047002641
0.004321933
0.0035649162
0.002692909
0.0018109677
0.0012285755
0.0010080995
0.0011278858
0.0014285641
0.0017979149
0.0021094088
0.0023446436
0.0024548634
0.0024955277
0.002460464
0.0023499582
0.0021871434
0.0019868604
0.0017724627
0.0015708909
0.0014195934
0.0014170876
0.0016002815