/*--------------------------------*- C++ -*----------------------------------*\
| =========                 |                                                 |
| \\      /  F ield         | OpenFOAM: The Open Source CFD Toolbox           |
|  \\    /   O peration     | Version:  2406                                  |
|   \\  /    A nd           | Website:  www.openfoam.com                      |
|    \\/     M anipulation  |                                                 |
\*---------------------------------------------------------------------------*/
FoamFile
{
    version     2.0;
    format      ascii;
    arch        "LSB;label=32;scalar=64";
    class       volScalarField;
    location    "550";
    object      epsilon;
}
// * * * * * * * * * * * * * * * * * * * * * * * * * * * * * * * * * * * * * //

dimensions      [0 2 -3 0 0 0 0];

internalField   nonuniform List<scalar> 
150387
(
0.0026626784
0.0014434094
0.0013200549
0.001218644
0.0011005217
0.0010194506
0.0010572707
0.0012269537
0.0048207441
0.0016206119
0.0016124949
0.0016562664
0.0016824475
0.0016640508
0.0015833509
0.0014395411
0.0012343627
0.00099378939
0.0007324165
0.00054611845
0.00080657972
0.0016228312
0.0017452247
0.0018862967
0.0019974164
0.0020862209
0.0021271555
0.0021029967
0.0020049848
0.0018376248
0.0016127878
0.0013322002
0.0010117196
0.00069966755
0.00047801574
0.00036257666
0.00058092518
0.0047445036
0.0018405826
0.0018678238
0.0018956374
0.0019266421
0.0019893827
0.0020926245
0.0022061899
0.0022688313
0.0022308195
0.0020898761
0.0018693403
0.0015946011
0.0012734714
0.00092188196
0.00060324382
0.00038818956
0.0003021584
0.00050726854
0.0065763789
0.0018662108
0.0017674429
0.0017578127
0.0017671879
0.0018077838
0.0018753858
0.0019515312
0.002032975
0.0021236338
0.0021928901
0.0021734763
0.0020233145
0.0017742311
0.0014652562
0.0011164529
0.00075853997
0.00046630007
0.00033580965
0.00036267604
0.00063767234
0.0014118467
0.0014416894
0.0014290104
0.0014141439
0.0014488582
0.0015240169
0.0016261242
0.0017417282
0.0018663905
0.0020004951
0.002107322
0.0021571126
0.0020934574
0.001893806
0.0016095933
0.001273038
0.00090772449
0.00056095656
0.0003790374
0.0004156135
0.00060691376
0.0013169341
0.00062850576
0.00073985313
0.00087350233
0.00097881138
0.001087181
0.0011951838
0.0012940082
0.001391368
0.0015240555
0.0016911223
0.0018807896
0.0020434624
0.0021214753
0.0020973881
0.0019456926
0.0017003768
0.0013927104
0.0010327152
0.00065066526
0.00041727067
0.00047498065
0.00064120955
0.00087270232
0.0015440395
0.0011616936
0.00043851377
0.00058050432
0.0007821121
0.0010058803
0.0012619031
0.0015275929
0.0017076549
0.0017609868
0.0017597143
0.0017821381
0.0018675946
0.0020102227
0.0020944075
0.0020719003
0.0019451948
0.0017314919
0.0014674617
0.0011248987
0.00071973595
0.00045712417
0.00052162722
0.00067116543
0.00086665583
0.00090095231
0.00045464027
0.00056145948
0.00074431018
0.00091422846
0.0010468528
0.0011213574
0.0012058566
0.0013683967
0.0016511172
0.002072442
0.0023193447
0.0022491325
0.0021975941
0.0021723659
0.0020858988
0.0019229123
0.0017232476
0.001496541
0.0011850053
0.00076904396
0.00050461751
0.00056591572
0.00070245237
0.00089095794
0.00094591609
0.0011860738
0.00059980105
0.00084322984
0.0011056518
0.0013294998
0.0015050573
0.0016358321
0.0017188449
0.0017477828
0.0017243801
0.0016931073
0.0016868212
0.0019774902
0.0024570339
0.0024270023
0.002205169
0.0019360621
0.0016883289
0.0014913142
0.0012176618
0.00080969171
0.00057518077
0.00062003303
0.00074759917
0.00095372874
0.0010015857
0.0010414723
0.00076193841
0.00086641151
0.0012012999
0.0014948552
0.0017143017
0.0018763804
0.0019718348
0.0019876566
0.0019524098
0.0018792406
0.001815215
0.0017822642
0.0017905135
0.0017865048
0.0021383569
0.0023324551
0.0019899651
0.0016572526
0.0014700625
0.001233607
0.00086125762
0.00066724079
0.00069273716
0.00082147488
0.0010445832
0.0010696783
0.0010088255
0.0009733772
0.0011553139
0.001565109
0.0018640341
0.0020743572
0.0022058948
0.0022477498
0.0022106694
0.0021386046
0.0020867819
0.0021019019
0.0021675786
0.0020814638
0.0018139246
0.0016949825
0.0019755656
0.001996757
0.0016272951
0.0014605133
0.0012110681
0.00094194601
0.00077422962
0.00079303324
0.00094444256
0.0011460761
0.0011340859
0.0010028714
0.0020333923
0.0010520046
0.00143208
0.0018964481
0.0022049133
0.0023861271
0.0024545913
0.0024344403
0.0023681961
0.0023040912
0.0022993174
0.0024147568
0.0024218625
0.0016777181
0.0009386354
0.00075322698
0.001251918
0.0018048977
0.0015965591
0.0014597205
0.0012306802
0.0010129755
0.00090875713
0.0009416829
0.0011151386
0.0012410223
0.0011805779
0.0010044518
0.0011293911
0.0011997048
0.0016636358
0.0021814682
0.0025131622
0.0026094867
0.0025824263
0.0025239528
0.0024458606
0.0023678747
0.0023953161
0.0026440372
0.0019167398
0.0012163656
0.0011494366
0.00043386072
0.00069837262
0.0015660107
0.0015435204
0.0014397769
0.0012778819
0.0011165442
0.0010904363
0.0011521629
0.0012790177
0.0013028296
0.0011898582
0.0009884472
0.0010179741
0.0013246089
0.0018273999
0.0024201355
0.0027486478
0.0027049241
0.002618883
0.0025355192
0.0024055306
0.0023207996
0.0024227837
0.0024703541
0.0016938404
0.0011687858
0.00033866608
0.00023026848
0.00079307032
0.0014853774
0.0015107107
0.001474319
0.0013476187
0.0012822197
0.0012981175
0.0013372476
0.0013613331
0.0013069752
0.0011592254
0.00092879942
0.00096712843
0.0014157452
0.0019244525
0.0025854548
0.0028610797
0.0027219523
0.002611044
0.0024600238
0.0022764245
0.0022384778
0.0024664818
0.0019832593
0.0017468664
0.0015413363
0.00097125896
0.00084715521
0.0012551557
0.0015157315
0.0015592693
0.0014897658
0.0014301501
0.0014179301
0.001420073
0.0013964379
0.0013444765
0.0012462325
0.0010613394
0.00083177102
0.0018489781
0.0015727882
0.001944309
0.0026548787
0.0028450836
0.0027261916
0.0025824832
0.0023329759
0.0021334452
0.0022003524
0.0025431875
0.0017199432
0.0017243205
0.0017922195
0.0015564984
0.0014513885
0.0014799236
0.0015123153
0.0014950716
0.0014691577
0.0014523362
0.0014364896
0.0014003312
0.0013326327
0.0012380053
0.0011034944
0.00089751084
0.00070274431
0.0011367843
0.0029091886
0.001899812
0.002617036
0.0027550761
0.0027345145
0.0025625699
0.0022158038
0.0020269627
0.0022218822
0.0024665704
0.0016527925
0.0016856371
0.001729927
0.00174628
0.001602705
0.0015421847
0.0014679883
0.001430139
0.001398559
0.0013626137
0.0013199888
0.0012542869
0.0011605912
0.0010432983
0.00089180333
0.00069098601
0.00053022972
0.0018151338
0.0024793289
0.002651529
0.0027181794
0.0025091812
0.0021264696
0.001950261
0.0022896675
0.0022348842
0.0016303046
0.0016759385
0.0016442418
0.0016004887
0.0015660733
0.0014745039
0.0013410685
0.0012600986
0.0012110286
0.001165574
0.0011011655
0.0010185678
0.00091605877
0.00079335479
0.000649075
0.00049145566
0.00052880004
0.0018391417
0.0022516215
0.0025693142
0.0026725945
0.0024236661
0.0020155903
0.0019062987
0.0023663452
0.0019499691
0.0016274612
0.0016992123
0.0016426813
0.0015261303
0.0013785691
0.0013047155
0.0012913173
0.0012275418
0.0010821677
0.00091551248
0.00081614238
0.00075159954
0.00067712795
0.00058063604
0.00046988305
0.0003938522
0.00047053579
0.0019438434
0.0024601193
0.0026127155
0.002340491
0.0018849054
0.0018914903
0.0024003393
0.001628205
0.0016163289
0.0017092828
0.0016900219
0.0015576022
0.0013690285
0.0011691219
0.0010275627
0.00095980102
0.00093729294
0.00091667706
0.00083879472
0.00072074392
0.00060491702
0.00048468897
0.00038123947
0.000358065
0.0016938156
0.0022520185
0.0025314122
0.0023141102
0.001782246
0.0018543604
0.0022726149
0.0013251993
0.0015473964
0.0016804063
0.001722766
0.0016297142
0.0014373177
0.0012322252
0.0010563128
0.00093626759
0.00085504757
0.00079597316
0.00074071344
0.00068028834
0.00060347322
0.00048739943
0.00035636456
0.00090562952
0.0020438228
0.0024153244
0.0023419825
0.0017616542
0.0017407873
0.001910905
0.0010385471
0.0014133467
0.0015952214
0.0017036162
0.0016962725
0.0015561588
0.0013712527
0.001212
0.0010882111
0.00100129
0.00094999275
0.00091199439
0.00086673847
0.00079866696
0.00077058553
0.00092922277
0.0023837352
0.0023784624
0.0018748687
0.0015054908
0.0014407155
0.00085615817
0.0012294214
0.0014601514
0.001621598
0.0017187509
0.0017102862
0.0015851639
0.001409914
0.0012675809
0.0011712963
0.0011050897
0.001065565
0.001048055
0.0010404207
0.0011021759
0.0026459658
0.0021147911
0.001184299
0.00095010366
0.00069156669
0.00099598111
0.0012754363
0.0014820722
0.0016201877
0.0016978463
0.0017064183
0.0016469346
0.0015309935
0.0013930644
0.0012794543
0.001220031
0.0012493867
0.0016890883
0.0034178204
0.00084519267
0.00053004699
0.00049848829
0.00072475345
0.00098751907
0.0012177167
0.0013771095
0.0014697691
0.0015008547
0.001469631
0.0013882713
0.0012930403
0.001190162
0.0011076867
0.0027856536
0.00056364299
0.00040673408
0.00050867478
0.00070665085
0.00087157017
0.0010185157
0.0011167451
0.0011586781
0.0011654336
0.001180153
0.0011668782
0.0017965725
0.00086555394
0.00084285741
0.00088434604
0.00096575667
0.0011744645
0.0022526448
0.0062234116
0.0026326213
0.0017473124
0.0015533146
0.001430773
0.0013310917
0.0013130638
0.0010023671
0.0014336249
0.0030529384
0.00236615
0.0022741739
0.0021866872
0.0020805242
0.0019404661
0.0017669244
0.0015662174
0.0013318798
0.0011066488
0.00093604547
0.0007200624
0.00093643634
0.0010761465
0.0057619729
0.0025912442
0.0025679102
0.0025965959
0.002573349
0.0024836441
0.0023335948
0.0021479475
0.0019513086
0.0017520625
0.0015388122
0.00131287
0.00105687
0.00082695293
0.00061082239
0.0004892278
0.00030223763
0.0048582249
0.0029369745
0.0026079748
0.0024640567
0.0023658774
0.002268587
0.0021670977
0.0020680693
0.0019705605
0.0018662624
0.001746768
0.0016025995
0.001428435
0.0012071575
0.0009700965
0.00072189699
0.00052070154
0.00038511518
0.00052825412
0.0043869993
0.0023985364
0.0019124401
0.0016853554
0.0015633212
0.0015066753
0.0014984119
0.0015213478
0.0015554536
0.0015886762
0.0016105132
0.0016056476
0.0015571516
0.0014547068
0.0012917211
0.0010799038
0.00083024246
0.00059172822
0.00041564169
0.00064180743
0.0012537511
0.0031183136
0.0015727466
0.0012006797
0.00097462711
0.00084509941
0.00079173119
0.00078505625
0.00081674606
0.00087762209
0.00096880968
0.0010921999
0.0012416577
0.0013726645
0.0014407352
0.001426189
0.0013254915
0.001150375
0.00090893583
0.00065155405
0.00045024379
0.00053838633
0.0010340459
0.0017496925
0.00099512507
0.00083103908
0.00072737374
0.00068238426
0.00068875462
0.00072224135
0.00078570306
0.0008606367
0.00092349753
0.00095164121
0.00097406085
0.0010464514
0.0011734901
0.0013002762
0.0013646479
0.0013295671
0.0011963154
0.00096586561
0.00068999559
0.00046783085
0.00048263422
0.00082282939
0.0011827101
0.0025427699
0.00039194758
0.00057690152
0.00069119163
0.00080482246
0.00088562689
0.00094400402
0.00099119736
0.0010472167
0.0011198469
0.0012102491
0.0012834948
0.0012704935
0.0012103298
0.0011912697
0.0012382495
0.0013052738
0.0013102099
0.0012232269
0.0010071692
0.0007117173
0.0004710783
0.00044515286
0.00072807658
0.001085023
0.0013876292
0.00071906348
0.0008775233
0.0010410182
0.0011585161
0.0012377913
0.0012918405
0.001323688
0.0013245255
0.0012826463
0.0012119713
0.001179724
0.0012181426
0.0012691356
0.0012757097
0.0012668365
0.0012783035
0.0012852461
0.0012257527
0.0010272248
0.00071763585
0.0004650006
0.00041893333
0.00068955866
0.0010737655
0.0012836511
0.0021604298
0.0022305628
0.00097299468
0.0011398679
0.0013156116
0.0014247907
0.001486479
0.0015217643
0.0015338052
0.0015080038
0.0014569055
0.0013393277
0.0011612447
0.00098594247
0.00094901331
0.0010764078
0.0011852996
0.0012233706
0.0012325545
0.001195324
0.0010179523
0.00070641952
0.00045511153
0.00040398633
0.00068455771
0.0011002193
0.0012435156
0.0013069084
0.001112691
0.001197921
0.0014376484
0.0015881023
0.0016478635
0.0016563255
0.0016375065
0.0015927763
0.0015292831
0.001451282
0.0013236967
0.0011303552
0.00092607377
0.00076291451
0.00075820218
0.000941057
0.001077116
0.0011230031
0.0011271241
0.00096616652
0.00068488816
0.00043840927
0.00040868859
0.00071178456
0.0011371529
0.0012310015
0.0011972762
0.0021842103
0.0014600904
0.0017152771
0.0018301318
0.0018337437
0.0017770632
0.0016875506
0.0015815259
0.001508079
0.0014488526
0.0012796671
0.00099159758
0.00070387289
0.00053109796
0.00049258291
0.00065774458
0.00086491561
0.00096121388
0.0010101731
0.00088273217
0.00064311094
0.00042018753
0.00043575173
0.00077259124
0.0011616399
0.0012211606
0.0011137475
0.0041857879
0.0014800773
0.0017431686
0.0019984553
0.002061099
0.0019914555
0.0018485501
0.0016699426
0.0015126072
0.0014967589
0.0014477991
0.0011264189
0.00070073488
0.00054535947
0.00031996311
0.00027597004
0.00041296205
0.00067232433
0.00080113075
0.0008727073
0.00078096259
0.00058380003
0.00041470028
0.00049875728
0.00085847641
0.0011709559
0.0012012419
0.0010585496
0.0019351933
0.0017071635
0.0020038127
0.0022789285
0.002282025
0.0021239938
0.0018765809
0.0015950871
0.0014341423
0.0015534659
0.0014252189
0.00090086641
0.00052592172
0.00031499458
0.00062929385
0.0005572037
0.0002937915
0.00056659607
0.0006777284
0.00074522271
0.00069016281
0.00054269046
0.00046468432
0.00063141066
0.0009497657
0.0011560307
0.0011376304
0.0010812924
0.0017240688
0.0016135121
0.0022719756
0.0025727727
0.0025005541
0.002246332
0.0018721009
0.0014842441
0.0014013204
0.0016705382
0.0013552882
0.00081233283
0.00056532685
0.00031785714
0.0001874729
0.00014683557
0.00032462897
0.00050560875
0.000602547
0.0006814764
0.00065920902
0.00057994238
0.00059983134
0.00080364962
0.0010231728
0.0011255322
0.0010671198
0.00091379124
0.0016452476
0.001797096
0.0024657056
0.0028520285
0.0027238672
0.0023700737
0.0018388808
0.0013610415
0.001433409
0.0017656592
0.0012882786
0.00091815094
0.00067164648
0.00043219144
0.00030652931
0.00031696694
0.00041569108
0.00053592987
0.00064882521
0.00073138597
0.00073675557
0.00072865567
0.00080310106
0.00095143674
0.0010564257
0.0010657265
0.0009655665
0.00082566009
0.0019563788
0.0023028506
0.0026153164
0.0031020481
0.0029609504
0.0024958982
0.0017797718
0.0012427211
0.0014757658
0.001766821
0.0013038145
0.0010903902
0.00082156148
0.00062616985
0.00051638606
0.00051878454
0.00057925541
0.0006915283
0.00080656511
0.00088057852
0.00090435268
0.00092501312
0.00097606013
0.0010296914
0.0010366114
0.00097584416
0.00085371645
0.00075339533
0.0034258706
0.0027309653
0.0032768791
0.0032066685
0.002619062
0.0017111813
0.001136573
0.0014458081
0.0016748864
0.0013547692
0.0012377712
0.00096040749
0.00079554561
0.00072060169
0.00074198281
0.00082127423
0.00092700989
0.0010112817
0.0010542365
0.0010629263
0.0010568802
0.0010434242
0.0010127976
0.00094546927
0.00083810987
0.00075588356
0.00064900198
0.0028219998
0.0033442292
0.0034378005
0.0027407173
0.0016594214
0.0010503829
0.0013278783
0.0015675566
0.0014047918
0.0013342774
0.0010506817
0.00088490765
0.00084856319
0.00087933831
0.00093784426
0.0010041759
0.0010567536
0.0010727858
0.0010666215
0.0010370316
0.00098675501
0.0009133052
0.00081504281
0.00069927996
0.00060445873
0.00051060072
0.0023852869
0.0032940394
0.0036281323
0.0028709223
0.0016504309
0.00098384831
0.0011669925
0.0014481744
0.0014253579
0.0013908277
0.0011143364
0.00088783575
0.0008108563
0.00085847082
0.00092179678
0.0009539437
0.00094511954
0.00093561486
0.00091419899
0.00087439279
0.00081252217
0.0007300837
0.00062844495
0.00053326026
0.00052256055
0.0012035213
0.0073048787
0.0032313164
0.0037968596
0.0030242914
0.0017152892
0.00094054378
0.0010108435
0.001313549
0.0014115845
0.0014197504
0.0012075876
0.00094402416
0.00074475797
0.00066968871
0.00069949057
0.00074734437
0.0007520392
0.00072356466
0.00068946106
0.00065369135
0.00061289687
0.00057017485
0.00052703161
0.00050281266
0.00051623684
0.0030690863
0.0040700279
0.0032517253
0.001884509
0.00092556238
0.00087255724
0.0011653021
0.0013653993
0.0014226906
0.001314657
0.0011202447
0.0008926739
0.00069649986
0.00058713213
0.00054293214
0.00053472781
0.00053631667
0.00053674853
0.00054243022
0.00055471855
0.00056994278
0.00059605545
0.00034848417
0.0045470597
0.0037389575
0.0022318937
0.0010303667
0.00077415133
0.0010111196
0.0012789333
0.0013921459
0.0013892623
0.0013239416
0.001202771
0.0010511561
0.00090723471
0.00079574947
0.0007263596
0.00070118779
0.00071100216
0.00075093736
0.00084091681
0.0010518385
0.00091244236
0.0012972057
0.0046817538
0.002937459
0.0014358337
0.00072937019
0.00084319502
0.0011358452
0.001311283
0.0014054674
0.0014535021
0.0014607354
0.0014329619
0.0013802136
0.0013217339
0.0012745095
0.0012490041
0.0012545579
0.0013279357
0.0015586357
0.0014697307
0.0024918582
0.0045493717
0.0024574628
0.00072753814
0.00065755148
0.00093291854
0.0011519827
0.0013249337
0.001466377
0.0015721965
0.0016567998
0.0017154178
0.0017354338
0.0017095092
0.0016541266
0.0016076241
0.0016495484
0.0019020581
0.00314303
0.0040427902
0.00077294008
0.00049476999
0.00073468388
0.00091278975
0.0011143469
0.0013093171
0.0014568845
0.0015659333
0.0016360567
0.0016750026
0.0017020427
0.0017415079
0.001729475
0.0023692029
0.00043301459
0.00087473774
0.00062789156
0.00083119478
0.00094107974
0.0010944821
0.0012347598
0.001337208
0.001419686
0.0015360474
0.0020081953
0.0051622177
0.0029011684
0.0015881972
0.0016715758
0.0018630736
0.0026225361
0.0084601387
0.0037006855
0.0024143264
0.0020597435
0.0018343217
0.0016610404
0.0015847405
0.0013847441
0.0018097403
0.0043295894
0.003197712
0.0030069324
0.0028259884
0.0026285345
0.0024010267
0.0021471059
0.0018794699
0.001589541
0.0013257924
0.001137798
0.00088717918
0.0010805738
0.0011375623
0.0088630692
0.0036755692
0.0035690399
0.0035195313
0.0033777471
0.0031550563
0.0028843871
0.0025912868
0.0023058478
0.0020379866
0.0017750728
0.0015158968
0.0012371432
0.00099323731
0.00074458017
0.00062292009
0.000380816
0.0076263985
0.0042865727
0.0037723194
0.0034728213
0.0032043818
0.0029492141
0.0027120034
0.0024986277
0.0023063832
0.002126419
0.0019510391
0.0017724451
0.0015825646
0.0013563412
0.0011207492
0.00085417012
0.00065627145
0.00061408524
0.0011684572
0.0070634901
0.0036238068
0.0028798344
0.0024848927
0.0021864749
0.0019579398
0.0018047291
0.0017288053
0.0017054655
0.0017051134
0.0017019794
0.0016780081
0.0016225543
0.0015298143
0.0013870033
0.0011970694
0.00094924068
0.00071349582
0.00059885474
0.0010962453
0.0022082798
0.0062151271
0.0025649713
0.0018450645
0.0014320634
0.0011616913
0.00097918912
0.00088186855
0.00084377108
0.00085347985
0.00090422132
0.00099682056
0.0011364145
0.0012772478
0.001376112
0.0014064985
0.0013564095
0.0012259159
0.0010081034
0.00075565195
0.00059467948
0.00083050719
0.0016417113
0.0027603344
0.001863605
0.0012916314
0.0009822304
0.00082888344
0.00075814489
0.0007280964
0.00072941464
0.00073988755
0.00076261666
0.00078090295
0.00078675805
0.00083315045
0.00095358752
0.001117357
0.001252344
0.0012974919
0.001230831
0.0010430609
0.00078045005
0.00057951155
0.00070111577
0.0013079259
0.0018001132
0.0040969521
0.00053341293
0.00076611025
0.00084504598
0.00092557167
0.00097662491
0.0010073791
0.0010277442
0.0010399563
0.0010458363
0.001051735
0.0010747029
0.001072821
0.0010162756
0.00097561131
0.0010236088
0.0011425513
0.00123651
0.0012202111
0.0010684225
0.00079427348
0.00055710737
0.00061866716
0.001164436
0.0016552813
0.0021582399
0.0009049474
0.0010520015
0.0011906018
0.001274973
0.001317933
0.0013412478
0.0013579371
0.0013551958
0.0013281442
0.001264308
0.0011711799
0.0010988272
0.0010722048
0.0010619837
0.0010699405
0.0011261576
0.0012036853
0.0012072153
0.0010786475
0.00079678034
0.00053111068
0.00055713572
0.0010889819
0.0016413799
0.0018905425
0.0031549094
0.0029113764
0.0012088166
0.0013450779
0.0014844628
0.0015425122
0.0015493081
0.0015386912
0.0015158835
0.0014879317
0.0014518561
0.0013744231
0.0012314553
0.0010447554
0.00089111721
0.0008759152
0.0009732629
0.0010885299
0.0011761318
0.0011889795
0.0010686212
0.00078306572
0.00049872517
0.00051320326
0.0010448723
0.0016461782
0.0017909575
0.0019011529
0.00153304
0.0014490889
0.0016608865
0.0017616927
0.0017553203
0.0016961336
0.0016201856
0.0015379798
0.001467798
0.0014116659
0.0012956393
0.0010897246
0.00087815336
0.00072004122
0.00064402781
0.00073803708
0.00093719748
0.00109467
0.0011492387
0.0010289298
0.0007502474
0.00046637118
0.00049061716
0.0010303943
0.001638698
0.0017310608
0.001681717
0.0027415223
0.0017441084
0.0019644034
0.0020150361
0.0019350751
0.0017917964
0.0016213746
0.0014572161
0.0013807746
0.001330797
0.0011156132
0.00079268261
0.00053055764
0.00040220978
0.00038699766
0.00049250501
0.00072980338
0.0009547086
0.001058025
0.00095841965
0.00069804431
0.00042644553
0.00050254459
0.0010490101
0.0016033667
0.0016661459
0.0015100224
0.0054336123
0.0018767615
0.0020740359
0.0022859388
0.0022692614
0.002099173
0.0018438709
0.0015468242
0.0013255886
0.001327812
0.0012524493
0.00087487725
0.00050003372
0.0003687857
0.00022602334
0.00021333783
0.00030839472
0.00055437183
0.00080631753
0.0009397924
0.00085703084
0.00060606048
0.00038880791
0.00055323259
0.0010899647
0.0015426766
0.0015863354
0.0013925375
0.002576817
0.0021551391
0.0023968816
0.0026220928
0.0025323531
0.0022542225
0.0018524672
0.0014137744
0.0012179205
0.0013609223
0.0011704275
0.00069999136
0.00038421615
0.00021688428
0.00054623265
0.00047959878
0.00022558517
0.0004692828
0.00068987808
0.00080504094
0.00071855284
0.00050333386
0.00039797075
0.00065545324
0.0011334122
0.0014561109
0.0014516508
0.001377922
0.0022955058
0.0021420227
0.0027441262
0.0029905616
0.0028162915
0.002406513
0.0018213193
0.0012609134
0.001182335
0.0014222971
0.0010948889
0.00069980753
0.00040595293
0.00020121964
0.00016607107
0.00012916406
0.00024953374
0.00043632355
0.00059332655
0.00066786645
0.0005793639
0.00044075798
0.0004670916
0.00078980367
0.0011605242
0.0013587914
0.0013169702
0.0011294266
0.0021673724
0.0024687573
0.0030238646
0.0033670692
0.0031290829
0.002563041
0.0017611565
0.0011327017
0.0011873412
0.0014139098
0.0010900314
0.00081182264
0.00049893449
0.00029335161
0.00021140898
0.00022423967
0.00031040922
0.0004381676
0.00054951075
0.00058985812
0.00052980787
0.00049359787
0.00062847702
0.00091811716
0.0011564887
0.0012449841
0.0011658482
0.0010108666
0.0023241109
0.0033599683
0.0032753372
0.0037381171
0.0034798782
0.0027358615
0.0016958765
0.0010440399
0.0011545271
0.0013375031
0.001159356
0.00094127471
0.00064814317
0.00047590907
0.00040269005
0.00039733451
0.00045533846
0.00055022627
0.00062941072
0.00065108844
0.00063418536
0.00067226243
0.00082010705
0.0010005033
0.0011146769
0.0011192467
0.0010242029
0.00095995527
0.00504108
0.0035081749
0.0040608366
0.0038673261
0.0029422066
0.001663514
0.00098644655
0.0010656993
0.0012821503
0.0012211392
0.0010361625
0.00077165206
0.00066191872
0.0006514645
0.00067910915
0.00072701067
0.00079203316
0.00083467113
0.0008406018
0.00083879557
0.00087202892
0.00094235239
0.0010057472
0.0010190057
0.00096495443
0.00092703785
0.00086086577
0.003734601
0.0042898775
0.0042727358
0.0032056506
0.0017082515
0.00095047589
0.00098220584
0.0012326219
0.0012597389
0.0010884473
0.00081589046
0.00072724459
0.00077933439
0.00085015844
0.00090232402
0.00094322955
0.00096321151
0.00095852145
0.00094875638
0.00094462108
0.00094487799
0.00093548776
0.0008986127
0.00082611263
0.00076192744
0.00068569064
0.0033985369
0.0043845273
0.0046757928
0.0035457492
0.0018572014
0.00093538152
0.00091355629
0.001183607
0.0012836761
0.0011409599
0.00084184874
0.00066986449
0.00069305217
0.00079602707
0.00086251828
0.00088538193
0.00088929003
0.00088460161
0.00086844478
0.00084504877
0.00081597241
0.00077681742
0.00071962779
0.00065617057
0.00067837914
0.001451343
0.010098755
0.0044624546
0.0050702652
0.0039572451
0.00212157
0.00096583366
0.00086696344
0.0011326579
0.0012968855
0.0012235954
0.0009667132
0.00070596109
0.00057491159
0.00058140243
0.00062921971
0.00066865342
0.00067141386
0.00066871322
0.0006658645
0.00066533433
0.00067217344
0.00068168363
0.00070135953
0.00076399695
0.00068855556
0.0046697073
0.0056095078
0.0044548041
0.0025244076
0.0010690547
0.00084330206
0.0010781016
0.001297106
0.0013169409
0.0011839138
0.00097193409
0.0007537642
0.0006185047
0.00055740918
0.00054117
0.00054800026
0.00056593811
0.00059884722
0.00065004047
0.0007173554
0.00080987555
0.00095956453
0.00062477663
0.0067771258
0.0052899927
0.0031423601
0.0013423029
0.00085009742
0.0010098069
0.0012756653
0.0013863338
0.0013934163
0.0013378501
0.0012353208
0.0011090782
0.00099349129
0.00091743359
0.00089610321
0.00093016677
0.00099841526
0.0011051114
0.0012759127
0.0016424698
0.0014962692
0.0024627119
0.0070308892
0.0042626568
0.0019991755
0.0009095559
0.00091642915
0.0012064385
0.0014023769
0.0015264982
0.001610763
0.0016653227
0.0016965954
0.0017128735
0.0017299273
0.0017616763
0.0018121964
0.0018907096
0.0020333135
0.002387275
0.0022713622
0.0041138433
0.0072130045
0.0036332376
0.0010508847
0.00078990932
0.0010715746
0.0013184491
0.0015291298
0.001719158
0.0018874313
0.0020483902
0.0021948162
0.0023057456
0.002367067
0.002379732
0.0023707602
0.0024816799
0.002899247
0.0050718097
0.0062911039
0.0013015666
0.00066345148
0.00093200055
0.0011181464
0.0013535451
0.0015994445
0.0018078677
0.0019869531
0.0021323695
0.0022482975
0.0023520964
0.0024813484
0.0025473421
0.0038103721
0.00059496033
0.0012116027
0.00085788107
0.0010654566
0.0012063062
0.0014054397
0.0016057141
0.00177858
0.001946524
0.0021832754
0.0029553243
0.0072776648
0.0036062866
0.0021145517
0.002267588
0.0025408917
0.0032884679
0.010469197
0.0046288082
0.0030397546
0.002536685
0.0022159671
0.0019853002
0.0018968824
0.0017086121
0.0022173941
0.0057527222
0.0040316202
0.003727784
0.0034491583
0.0031617843
0.002849988
0.0025219228
0.0021908308
0.0018498258
0.0015495218
0.0013486566
0.001070274
0.0013235447
0.0014079883
0.012044095
0.0049031903
0.004700687
0.0045155342
0.0042172485
0.0038405484
0.0034400256
0.0030384338
0.0026675382
0.0023343554
0.0020233683
0.0017305712
0.0014273231
0.0011707503
0.00088948008
0.00088543034
0.00063486259
0.010966681
0.0059684085
0.0051988203
0.0046652781
0.0041603073
0.0036900983
0.003284841
0.0029441145
0.0026591817
0.0024125087
0.0021886875
0.0019760296
0.0017649684
0.001526301
0.0012876033
0.0009965295
0.00086038162
0.0010346563
0.0021599568
0.01067723
0.0053856729
0.0043023445
0.0036332408
0.0030745987
0.0026070183
0.0022594699
0.0020390878
0.0019259043
0.0018741424
0.0018440838
0.0018059355
0.001743356
0.0016505348
0.001514513
0.0013357886
0.0010832233
0.00087841242
0.00089608934
0.0017802685
0.0034862828
0.010515726
0.0040569898
0.002895727
0.002211344
0.001724589
0.0013699727
0.0011288359
0.00099107553
0.00092711142
0.00092940897
0.00099135124
0.0011145204
0.0012606355
0.0013813427
0.0014416324
0.0014241185
0.0013234063
0.0011196457
0.00088961129
0.00081346992
0.0013301183
0.0025603556
0.0041311217
0.0031885397
0.0019806219
0.0013944013
0.0011101504
0.00094787969
0.00085041978
0.00079526488
0.00076393532
0.00074589293
0.00073350684
0.0007179757
0.00074243086
0.0008344065
0.0010092856
0.0011913306
0.0012961106
0.0012817602
0.0011260352
0.00088516481
0.00074346071
0.0011043769
0.0020923941
0.002654845
0.0061888954
0.00084261785
0.0011170297
0.0011121995
0.0011273497
0.0011196736
0.001102962
0.0010892663
0.0010764306
0.0010567435
0.0010244258
0.00099036066
0.00095774759
0.00089692119
0.00084049068
0.00087625826
0.0010200683
0.0011766058
0.0012308238
0.0011196852
0.0008738226
0.00068121838
0.00094859463
0.0018671663
0.0024733428
0.0031102061
0.0011079184
0.0012486822
0.0013718359
0.0014199707
0.0014175805
0.0013986158
0.0013796479
0.0013578132
0.0013252953
0.0012696744
0.0011785024
0.0010701518
0.00098534497
0.00092867462
0.00091520005
0.00098477896
0.001114107
0.0011898309
0.0011063102
0.00085818967
0.00062635013
0.00082560278
0.0017102987
0.0024255465
0.0026055883
0.0042630936
0.0036057811
0.0014601987
0.0015640308
0.00167146
0.0016814935
0.0016330633
0.0015695768
0.0015076386
0.0014511195
0.0014030554
0.0013359352
0.0012177675
0.0010607329
0.0009012061
0.00081181079
0.00083990968
0.0009491405
0.0010835778
0.0011602705
0.0010843944
0.0008338168
0.00057536902
0.00073179383
0.0015811758
0.0023635598
0.0024308501
0.0025559354
0.0019278279
0.001696859
0.0018836882
0.0019458897
0.0018828068
0.0017590898
0.0016182188
0.0014794196
0.0013790649
0.0013177088
0.0012042366
0.0010094354
0.0008178041
0.00069299439
0.00061713552
0.00064990351
0.00081976069
0.0010172869
0.0011206145
0.0010454504
0.00079309011
0.00052621961
0.00066966471
0.0014871883
0.0022638126
0.0023026553
0.0022065917
0.0033305821
0.002014167
0.0022042366
0.0022057517
0.0020566994
0.0018320768
0.0015727055
0.001339931
0.0012388721
0.001179113
0.00096431479
0.0006656077
0.00043410979
0.0003314951
0.00034499492
0.00042879702
0.00064134193
0.000903424
0.0010474174
0.00097990134
0.00073523628
0.00047389922
0.00065171693
0.0014355708
0.0021353577
0.0021682397
0.0019438461
0.0067947742
0.0022812162
0.002379109
0.0025554747
0.0024768145
0.002220632
0.0018576005
0.0014415707
0.0011624219
0.0011488043
0.0010629122
0.00072678474
0.00040112529
0.00028240252
0.00017703127
0.00017857199
0.00026672681
0.00049125566
0.00078328952
0.00095050494
0.00088950981
0.00064046034
0.0004233625
0.00068946988
0.0014175502
0.0019856028
0.0020163203
0.0017568356
0.0032030223
0.002564405
0.0027550583
0.0029377187
0.0027690021
0.002380391
0.0018344685
0.0012577981
0.0010383089
0.0011455824
0.00097665775
0.00060304801
0.00031144377
0.00016641816
0.0004791536
0.00040839867
0.0001969579
0.00042516319
0.00069531786
0.00083533255
0.00075166737
0.00052348068
0.00041956196
0.00078068501
0.0014115794
0.0018213748
0.0018104968
0.0016598217
0.0028347733
0.0026334707
0.003168112
0.0033704437
0.003098203
0.0025434483
0.0017727823
0.001101772
0.00099918814
0.0011563581
0.00092954708
0.00061829837
0.00031985478
0.00015074724
0.00015772313
0.00012882273
0.00022796933
0.00041823038
0.00061345552
0.00068993586
0.00058473522
0.00043878951
0.0004782354
0.00090175396
0.0013955226
0.0016566315
0.0016109446
0.0013963385
0.0026671788
0.0030929224
0.003525024
0.0038347208
0.0034787986
0.0027256822
0.0017007926