/*--------------------------------*- C++ -*----------------------------------*\
| =========                 |                                                 |
| \\      /  F ield         | OpenFOAM: The Open Source CFD Toolbox           |
|  \\    /   O peration     | Version:  2406                                  |
|   \\  /    A nd           | Website:  www.openfoam.com                      |
|    \\/     M anipulation  |                                                 |
\*---------------------------------------------------------------------------*/
FoamFile
{
    version     2.0;
    format      ascii;
    arch        "LSB;label=32;scalar=64";
    class       volScalarField;
    location    "550";
    object      k;
}
// * * * * * * * * * * * * * * * * * * * * * * * * * * * * * * * * * * * * * //

dimensions      [0 2 -2 0 0 0 0];

internalField   nonuniform List<scalar> 
150387
(
0.00054691312
0.00053025063
0.00055686381
0.00054372316
0.00049522436
0.00041777893
0.00031769703
0.00026964895
0.00044070297
0.00058623573
0.00070444327
0.00080051931
0.00085066123
0.00086276975
0.00083807136
0.00078138182
0.00068762453
0.00055563473
0.00039770273
0.00026103104
0.00020522992
0.00053852774
0.00072802857
0.00088200537
0.00098902803
0.0010570691
0.0010904541
0.001089958
0.0010545902
0.0009885292
0.00089692836
0.00077403482
0.00061441717
0.00043009483
0.00026633486
0.00016997327
0.00015028971
0.00041657622
0.00064248429
0.00075449522
0.00082579077
0.00088743774
0.00095458706
0.0010330447
0.0011044421
0.001141725
0.001131345
0.0010778463
0.00099671154
0.00089353547
0.00075748817
0.00058208019
0.00039232892
0.0002377574
0.00016798124
0.00015185517
0.00045721587
0.00058335401
0.00067339139
0.00073133637
0.00078722583
0.00084318155
0.00089711614
0.00094158546
0.00097841972
0.0010192885
0.001055541
0.0010574449
0.001010992
0.00093089885
0.00082272162
0.00067306644
0.0004882974
0.00030966712
0.00021514814
0.00018878783
0.00023268692
0.00050209295
0.00059038083
0.00060222489
0.00062159102
0.00065642753
0.00070245611
0.000757401
0.00081208692
0.00085804979
0.0008965426
0.0009312827
0.00095981401
0.00095868682
0.00091167132
0.00083125869
0.00071187678
0.00054229202
0.00035628036
0.00025386815
0.0002494221
0.00029405645
0.00032495748
0.00021617222
0.00031063213
0.00038658935
0.00044668826
0.00049635752
0.00054261777
0.00058325013
0.00061280425
0.00064799044
0.00069870792
0.00075403444
0.00080324384
0.00083688411
0.00085770508
0.00084072493
0.00079565567
0.00071195924
0.00056231375
0.00037379706
0.00027103452
0.0002913972
0.00032819591
0.00037047119
0.00029759163
0.000171484
0.0002261351
0.00033546435
0.0004125981
0.00046384609
0.00050547994
0.00055471512
0.00060381787
0.00062613789
0.00062050216
0.00061289298
0.00062955799
0.00068186526
0.00072331387
0.00074600676
0.00075507782
0.00073139954
0.00068136145
0.00055735947
0.00036792279
0.00027877878
0.0003131639
0.00035363885
0.00041597394
0.000377905
0.00020766791
0.00033513886
0.00045417161
0.0005149448
0.00052609506
0.00050005575
0.00046695617
0.00044425724
0.00043743631
0.00046933105
0.00054664445
0.00059130642
0.00060789484
0.00063358146
0.00065133833
0.00065465648
0.00065468648
0.00062781313
0.00053174728
0.00034878149
0.00028422537
0.00032717108
0.00037976837
0.00046047859
0.00046022032
0.0003644538
0.00031689866
0.00051301212
0.00065824746
0.00073470319
0.00076030788
0.0007491092
0.00071407061
0.00065580629
0.00058108352
0.0005030363
0.00042182977
0.00042201301
0.0005140709
0.00057771698
0.00058284818
0.00057313184
0.00056365259
0.00056111612
0.00048924723
0.00032617876
0.00029829386
0.00034630372
0.00040696616
0.00051962354
0.00052654412
0.00040989373
0.00024479952
0.00048302715
0.00070863984
0.00085049109
0.00090979051
0.00090960167
0.00086770685
0.00078810937
0.00070518857
0.00060571003
0.00052292417
0.00045290356
0.00041192458
0.0003774863
0.00042786254
0.00051758187
0.00050460484
0.00048798555
0.00048993069
0.00043841007
0.0003119323
0.00031552046
0.0003752807
0.00044621991
0.00058921876
0.00059171737
0.00046213421
0.00036803599
0.0006469241
0.00088056153
0.0010071609
0.0010441272
0.0010168734
0.00093900216
0.00083710228
0.00072857663
0.00063378666
0.00056203822
0.0005060926
0.00044585695
0.00039685612
0.00037508027
0.00042553034
0.00044797403
0.00041946373
0.00042605617
0.00037390699
0.00031937006
0.00034349093
0.0004162915
0.00051414864
0.00065803597
0.00064930883
0.00051099656
0.00039932554
0.00046960192
0.00078659464
0.0010235338
0.0011389338
0.0011571002
0.0010961869
0.0009804588
0.00086380329
0.0007504136
0.00065754767
0.00058612272
0.00050512959
0.00037092896
0.00023685503
0.00020762148
0.00031164485
0.00039905328
0.00037509822
0.00037947479
0.00032751769
0.00034057232
0.00038977512
0.00048097335
0.00061087433
0.00071776978
0.00068989924
0.00054500796
0.0003575264
0.00054368426
0.00088859514
0.0011395626
0.0012582196
0.0012417522
0.001138633
0.0010053679
0.00087720359
0.0007519708
0.00065264749
0.00057729001
0.00039210555
0.0002764671
0.00020783686
0.00015702698
0.00020989441
0.0003604367
0.00034138808
0.00033447281
0.00034051074
0.00038032012
0.00046812472
0.00058124892
0.00070662766
0.00075878341
0.00070565546
0.00055649679
0.00032961785
0.00059428363
0.00095053924
0.0012347575
0.0013525067
0.0012804659
0.0011588285
0.0010222941
0.0008695504
0.00073610383
0.00064314454
0.000495855
0.00036147074
0.00028694723
0.00012699374
0.0001038459
0.000231714
0.00034030935
0.00032937175
0.00034519665
0.0003894671
0.00046839664
0.0005724662
0.0006856369
0.00076417185
0.00077269047
0.00070129296
0.00053051259
0.000313763
0.00057781288
0.00097857737
0.0012993991
0.0013978624
0.001285923
0.0011759932
0.0010185986
0.00084991166
0.00072536776
0.00063931253
0.00042502962
0.00037975014
0.00035716891
0.00026470865
0.00024606674
0.00031441371
0.00034844505
0.00035813277
0.00039947756
0.00047593098
0.00056666457
0.00066389121
0.00074150781
0.00077713185
0.00075839561
0.00065932173
0.00047022241
0.0002740041
0.00043614817
0.00095913149
0.0013214871
0.0013833961
0.001291955
0.0011891015
0.0010014134
0.00083508457
0.00073902172
0.00062257379
0.00043546656
0.00041136598
0.00039677177
0.00034637642
0.00033408331
0.00034108511
0.00035709265
0.00039743696
0.00047164534
0.00055177539
0.0006347464
0.00070221407
0.00074583888
0.00075184364
0.00070247233
0.000574782
0.00037518093
0.00025792413
0.00050902178
0.00088850056
0.0012909453
0.0013223756
0.0012962257
0.0011852536
0.00098034759
0.00082742132
0.00077476507
0.000585502
0.00050025189
0.00046876505
0.00042298146
0.00038570593
0.00035156947
0.00036491379
0.00040092421
0.00046092745
0.00052606868
0.00058899332
0.00064368787
0.00068623211
0.00070013125
0.00067613958
0.00059757104
0.00045134315
0.00026718709
0.00074092384
0.0011960117
0.001240914
0.0012737327
0.0011550919
0.000950538
0.00082154939
0.00081942334
0.00055731114
0.00057030193
0.00054573962
0.00048716351
0.00042498891
0.00038585945
0.00036564258
0.00039180587
0.00044825863
0.00050299401
0.00055201488
0.00058403032
0.00060057279
0.00059398
0.00055012513
0.00045591867
0.00031452313
0.00019339035
0.00057206533
0.0010245908
0.001154834
0.0012180437
0.0010969175
0.00090071467
0.00081929676
0.0008680099
0.00054931119
0.00064597029
0.00064163831
0.00057807063
0.00050465575
0.0004349195
0.00042005483
0.00042171977
0.00041624491
0.00041953601
0.00042043764
0.0004374127
0.00046253785
0.00046076175
0.00041629237
0.00032414832
0.000207495
0.00016091683
0.00075777456
0.001044349
0.0011332624
0.0010211318
0.00083258031
0.00081851976
0.00089102243
0.00053884229
0.00071000128
0.00073110777
0.0006885611
0.00061443413
0.00053964897
0.00046591799
0.00043104457
0.00043422254
0.00045733176
0.00048240329
0.00048038105
0.00045183356
0.00040579389
0.00033202493
0.00022911271
0.0001520623
0.00042456815
0.00088200312
0.0010110555
0.00094969025
0.00076077727
0.0008018889
0.00087355817
0.00051158413
0.0007502377
0.00080951267
0.00080171672
0.00074047223
0.00065603717
0.00058178555
0.00052009116
0.00047330479
0.00044423372
0.00042839607
0.00041152009
0.00038571246
0.00034736307
0.0002841315
0.00018227012
0.00016621379
0.00060376518
0.00084880798
0.00089942033
0.0007011761
0.00074480193
0.00076256338
0.00050309297
0.00076072456
0.00085128808
0.00088456263
0.00086717539
0.00079265883
0.00070072398
0.00062719474
0.00056905072
0.00052788181
0.00050432212
0.00048082383
0.0004440204
0.00038577763
0.00028441206
0.00019282451
0.00061601228
0.00083761615
0.00066093482
0.00063281456
0.00062950307
0.00049308537
0.00073003319
0.00084918029
0.00091300472
0.00094249957
0.00092415664
0.00084932125
0.00074848633
0.00066248684
0.000598229
0.00054567203
0.00050365967
0.00046748454
0.00041355638
0.00027820342
0.00059494017
0.00062380849
0.00048479379
0.00046968414
0.00044096169
0.00064116629
0.00078494927
0.00087458972
0.00092823516
0.00095571083
0.00095160268
0.00091022994
0.00083164574
0.00072630756
0.00062093138
0.00052861345
0.00043176057
0.00032868639
0.00047144145
0.00029053262
0.00029075942
0.00031579081
0.00047509688
0.00063162445
0.00074611198
0.00081465936
0.00084963496
0.00085223947
0.0008162606
0.00074244509
0.00064215215
0.00052058395
0.00037975545
0.00035659015
0.00013791966
0.00018847861
0.00027337992
0.00040373162
0.00051436178
0.000588186
0.00062260101
0.00061815316
0.00056794764
0.00049657028
0.00039335477
0.00039293044
0.00022707039
0.00026606805
0.00029697011
0.00031465849
0.00035598208
0.00040245272
0.0008107663
0.00081969754
0.00083316923
0.00082489595
0.00078092228
0.0007152949
0.00062720583
0.00051053792
0.00046319184
0.00086046794
0.0011555528
0.001296762
0.0013904526
0.0014421643
0.0014374935
0.0013798203
0.0012736496
0.0011109893
0.00091069324
0.00068643846
0.00050062811
0.00030697994
0.00025622966
0.00084226662
0.0010807357
0.0013122026
0.0015084337
0.0016510376
0.0017298402
0.0017455647
0.0017101125
0.0016390884
0.0015396198
0.0014078271
0.0012379266
0.0010168546
0.00077531605
0.00053180325
0.00031098693
0.00020134442
0.00088480541
0.00099098749
0.0011383211
0.0012877387
0.0014125714
0.0015039068
0.0015674019
0.0016091573
0.0016295381
0.0016241034
0.0015873009
0.0015146028
0.0014000951
0.0012302395
0.0010047742
0.00074564978
0.00048016466
0.00029795466
0.00022039524
0.00082234549
0.00077898205
0.00082649965
0.00089600591
0.00096316817
0.0010316405
0.0011072181
0.0011910965
0.0012771993
0.001359317
0.0014296018
0.0014749568
0.0014799575
0.0014338465
0.0013263227
0.0011473163
0.00090532269
0.00063172002
0.00040127968
0.00032452783
0.0003837362
0.00054652928
0.00055034433
0.00056180788
0.00058464016
0.00060554131
0.00062713639
0.00065501912
0.00069869323
0.00076304227
0.0008516846
0.00097133348
0.0011191681
0.00125367
0.0013474257
0.0013805522
0.0013403561
0.0012150443
0.0010005567
0.00073492755
0.00048307749
0.00035571887
0.00041194867
0.00048709679
0.00037041152
0.00047707987
0.00056890427
0.00063364291
0.00067429968
0.00070125287
0.00072874074
0.00075619225
0.00077402831
0.00078407354
0.0008133044
0.0008964534
0.0010260914
0.0011662285
0.0012690409
0.0012981384
0.0012306442
0.001047463
0.00078887934
0.00053145088
0.00038089105
0.00041305949
0.00055088663
0.00058027281
0.00022041043
0.00050116131
0.00070543026
0.0008474661
0.00092026727
0.00094396365
0.00093580094
0.00091193935
0.00088591305
0.00087066155
0.00086296877
0.00084899981
0.00085051064
0.00090198704
0.0010084611
0.0011337507
0.0012168521
0.0012065451
0.0010575427
0.00080451614
0.00054987847
0.00039333337
0.00043469802
0.00059251207
0.00055327506
0.00049685306
0.00078025743
0.0010116486
0.0011537861
0.0012223135
0.0012358262
0.0012039197
0.0011296628
0.0010168039
0.00087779615
0.00075214578
0.00068833992
0.00070011479
0.00076526674
0.00086513625
0.00099084468
0.001107232
0.0011479575
0.0010335703
0.00078932454
0.00054444444
0.00039500946
0.00046665279
0.00066515788
0.00069383227
0.00062287426
0.0004278453
0.00070228794
0.0010520215
0.0012885151
0.0014091856
0.0014498729
0.0014367935
0.0013800722
0.0012840042
0.0011477537
0.00096727269
0.00076135278
0.00058688806
0.0004913732
0.00053564777
0.00066640183
0.00081615891
0.00096543963
0.0010559143
0.0009731079
0.00074853266
0.0005253055
0.00038972702
0.00050515255
0.00075762872
0.00077248034
0.00065230521
0.00046757365
0.00095868958
0.0013226476
0.0015218488
0.0015915114
0.0015776312
0.0015076058
0.0013934238
0.0012466037
0.0010725719
0.00086375286
0.00065272031
0.00049218313
0.00039144941
0.00035697361
0.00045756071
0.00061838226
0.00079034764
0.00092813294
0.00087499682
0.00069379661
0.0004923101
0.00039264826
0.00056330571
0.00085463566
0.00085010802
0.00067827644
0.00055458377
0.0011979354
0.0015441286
0.0017022797
0.0017193953
0.0016453269
0.0015113906
0.0013400189
0.0011616352
0.00096357677
0.00071621289
0.00048633425
0.0003296928
0.00025719447
0.00024059791
0.00030607652
0.00045142877
0.00061718172
0.00077496415
0.00075546799
0.00062725456
0.00045320054
0.0004233999
0.000655184
0.0009407002
0.00091856224
0.00071456066
0.0006111986
0.00070520255
0.0013985467
0.0017326744
0.0018496594
0.001809655
0.0016681362
0.0014637545
0.0012478576
0.0010777902
0.00085246999
0.0005453222
0.00031429274
0.00022742829
0.00014653321
0.00013886222
0.00020354389
0.00034221723
0.00048450008
0.0006291893
0.00063213317
0.00055135714
0.00043204147
0.00048745284
0.00077197829
0.0010086277
0.00096486978
0.00074294771
0.00059663763
0.00099859206
0.0015444728
0.0018925498
0.0019674146
0.0018671192
0.0016535187
0.001375023
0.0011501363
0.0010381068
0.000756948
0.00041538215
0.00025275106
0.00016461584
0.00014715457
0.00021407958
0.00016058909
0.00029356695
0.00040146644
0.00050723385
0.00053453887
0.00049835329
0.00046574371
0.00061297112
0.00089625655
0.0010537229
0.00097030858
0.00071087796
0.00057760949
0.00084545641
0.0016481262
0.0020253447
0.0020563854
0.0019005588
0.0016104259
0.0012636725
0.0010875267
0.0010536654
0.00070156048
0.00041819258
0.00027896892
0.00015553857
0.0001043679
9.90735e-05
0.00017785793
0.00026589575
0.00034950403
0.00044695196
0.0005069405
0.00052752614
0.00059435708
0.00079188017
0.001002963
0.0010717161
0.00094540568
0.00068869571
0.00055367292
0.0008990279
0.0016764561
0.0021188686
0.0021167267
0.0019172094
0.001541744
0.0011560044
0.0010769403
0.0010916889
0.00071327708
0.00052251784
0.00034137723
0.00021089511
0.00016623601
0.00016932638
0.00021279517
0.00028281114
0.00038048585
0.00049425383
0.00058699153
0.00066609912
0.00079388475
0.00095926116
0.0010700677
0.0010521082
0.0008718314
0.0006198692
0.00051947325
0.00088634341
0.0016334757
0.0021527071
0.0021468676
0.0019167116
0.001450241
0.0010573398
0.0010886332
0.0011068488
0.00081632485
0.00068164303
0.00045786683
0.00031612454
0.00026835884
0.00027910936
0.00031890135
0.00040653871
0.00053067468
0.00066176751
0.00077251473
0.00087338057
0.00098097105
0.0010664177
0.0010803197
0.00098439669
0.00075184322
0.00049711819
0.00086366355
0.001532015
0.0021023026
0.0021384918
0.0018909831
0.0013469304
0.00096268155
0.0010797853
0.0011203815
0.00095947854
0.00086647794
0.00061595712
0.00046175355
0.00040975434
0.00044619729
0.00052955816
0.00064971994
0.00078465176
0.00090124536
0.00098695392
0.0010474365
0.0010848913
0.0010819033
0.0010128556
0.00084972312
0.00059038172
0.00039567122
0.0013533594
0.0019520939
0.0020721857
0.0018322177
0.0012465623
0.00087823493
0.0010409297
0.0011390468
0.0010899374
0.0010375911
0.00078047395
0.00061353381
0.0005634026
0.00059569166
0.00068677596
0.0008083283
0.00092333319
0.0010055061
0.001049928
0.0010644475
0.0010519486
0.00099146768
0.00086972247
0.00068008314
0.00044586381
0.00030065966
0.00096233414
0.0016998939
0.0019250875
0.0017339704
0.0011578168
0.00080358277
0.0009752074
0.0011433788
0.0011876508
0.0011805198
0.00092990701
0.00072691755
0.00064935128
0.00067907847
0.00075166112
0.00081412591
0.00086680754
0.00091366523
0.00094300707
0.00094321222
0.00090418068
0.00081505218
0.00067217884
0.00048372901
0.00033785284
0.00026950476
0.0009060742
0.0013468598
0.0016911628
0.0015898909
0.0010802664
0.00074149151
0.00089215769
0.0011234139
0.0012457828
0.0012829151
0.0010857865
0.00085503304
0.00068563691
0.00062671815
0.00066088063
0.0007282904
0.00076748831
0.00077586149
0.00076952449
0.00074239429
0.000687104
0.00059705997
0.00046625296
0.0003044901
0.00019963799
0.00093431061
0.0013979046
0.0014016254
0.0010022237
0.00068639149
0.00080123532
0.0010743943
0.0012651495
0.0013447135
0.0012381829
0.0010563485
0.0008491473
0.00067517613
0.00057021552
0.00053586121
0.00054421477
0.00055411756
0.00054839169
0.00052912555
0.00049114224
0.00042876003
0.00034693948
0.00024706428
0.0010063696
0.0012049689
0.0009275582
0.00062962207
0.00069908153
0.00098437235
0.0012203195
0.0013488353
0.0013400142
0.0012583976
0.0011217197
0.00095844328
0.00080616159
0.00068689375
0.00061454114
0.00057085543
0.00053576043
0.00050114146
0.00046501872
0.00043899415
0.00035696681
0.00034720102
0.0010145307
0.00089190775
0.00058431392
0.00057959874
0.00084047299
0.001094728
0.0012744961
0.0013522259
0.0013677758
0.0013334772
0.001254973
0.001145151
0.0010235947
0.00090628739
0.00080117974
0.00070946945
0.00062926191
0.00057751274
0.00049117482
0.00056673023
0.00089846218
0.00061312798
0.00044383343
0.000630258
0.00086665976
0.0010907937
0.0012406366
0.0013323607
0.0013793232
0.0013884545
0.0013575659
0.0012817005
0.0011628263
0.0010158381
0.00086626717
0.0007376069
0.00058681478
0.00063724052
0.00078142331
0.00032766437
0.00039055061
0.00055334571
0.0007703093
0.0009649193
0.0011078275
0.001186594
0.0012133562
0.0011901727
0.0011210359
0.0010251043
0.00090628223
0.00076182947
0.00068318268
0.00021512322
0.00028537867
0.00039143798
0.00054542328
0.00071110042
0.00081633853
0.00087220451
0.00087635767
0.00083248448
0.00078764023
0.00073944884
0.00069980657
0.00048082982
0.00052420654
0.00056656874
0.00060268675
0.00062928358
0.0010092645
0.00099498628
0.0010106444
0.0010136719
0.00095223702
0.00086598964
0.00075635931
0.00059666527
0.00054069187
0.0011256723
0.0015309547
0.0017074084
0.0018050015
0.001846542
0.0018144059
0.0017179621
0.0015681712
0.0013519868
0.0011012605
0.00083055659
0.00060518128
0.00035999099
0.00028221469
0.0011023504
0.0014858528
0.0018349609
0.0020706048
0.0021995707
0.0022371887
0.0022043624
0.0021183589
0.0020010928
0.0018611829
0.0016913054
0.0014857439
0.001225904
0.00094460356
0.00064828499
0.00037551952
0.00022807342
0.0011818233
0.0014403506
0.0016943139
0.0018860321
0.0019936037
0.0020377356
0.0020416438
0.0020231372
0.0019892661
0.0019395875
0.0018704936
0.0017757824
0.0016449089
0.0014572944
0.0012058884
0.00090630582
0.00059340285
0.00038919273
0.00036002229
0.0011189118
0.0011339752
0.0012540696
0.001353986
0.0014006322
0.0014145208
0.0014220446
0.0014509801
0.001503322
0.0015671774
0.001627314
0.0016682938
0.0016762143
0.0016380525
0.001536892
0.0013525416
0.0010879411
0.00077326541
0.00050694482
0.00045723616
0.00055755517
0.00085655777
0.00079438504
0.00081949262
0.00085268689
0.00085945397
0.00084561067
0.00082721823
0.00082306179
0.00085110534
0.00090667828
0.0010041619
0.0011556349
0.0013170401
0.0014502084
0.0015250683
0.0015191274
0.0014106228
0.0011914666
0.00089282615
0.000601596
0.00048810323
0.00059731572
0.00067369575
0.00054117299
0.00063722938
0.00074102076
0.00081083165
0.00084454676
0.0008516115
0.00084354198
0.00082881158
0.00081665894
0.00080588335
0.00080884905
0.00085832881
0.00098949598
0.0011788977
0.0013501088
0.0014424567
0.001413555
0.0012414043
0.00095896412
0.00065846094
0.00052192881
0.00063103161
0.00078727743
0.00079787713
0.00027947235
0.00062222445
0.0008660068
0.0010318845
0.0011211092
0.0011593663
0.0011640415
0.0011417091
0.0010970155
0.0010365119
0.00097841325
0.00092115245
0.00087171953
0.00088271389
0.00099629833
0.0011770021
0.001334827
0.0013806543
0.0012555015
0.00098683732
0.00068180221
0.00053984172
0.00068559777
0.0008931388
0.00078811976
0.00060788792
0.00095202687
0.0012160832
0.001372568
0.0014476336
0.0014710827
0.0014575139
0.0014079372
0.0013190193
0.0011888556
0.0010288682
0.00088189088
0.00079209813
0.00078332323
0.00086579549
0.001031296
0.0012180198
0.0013218943
0.0012403915
0.00098547874
0.00067853581
0.00054114462
0.00073936803
0.0010198988
0.00097866541
0.00081837508
0.00050027134
0.00085300791
0.0012707223
0.0015338305
0.001653027
0.0016818928
0.0016594791
0.0016012408
0.0015094984
0.0013844183
0.0012173959
0.0010118829
0.00080817494
0.00064518758
0.00058690527
0.00067022379
0.00085955461
0.0010843188
0.0012389856
0.0011958644
0.00095680446
0.00065472859
0.00053291253
0.00079046428
0.001139747
0.0010932876
0.0008474716
0.00055731279
0.0011628213
0.0015884858
0.001796581
0.00184721
0.0018058337
0.0017110376
0.0015779611
0.0014220267
0.0012451822
0.0010212079
0.00077755077
0.00058523401
0.00046802329
0.00040499112
0.00045840407
0.00065375328
0.00091893333
0.0011260242
0.0011179919
0.0009020288
0.00061547994
0.00052257727
0.00084638392
0.0012394365
0.0011875321
0.00088428066
0.00065889664
0.0014560356
0.0018486708
0.0019988404
0.0019794956
0.0018580378
0.0016730508
0.0014581405
0.0012634022
0.0010495812
0.00076011366
0.00048871245
0.00031239875
0.00024115829
0.0002402764
0.000295957
0.00047140012
0.0007458161
0.00098809501
0.0010103861
0.00082579541
0.0005558988
0.00053378898
0.00092158562
0.0013080006
0.0012557586
0.00093844943
0.00074249583
0.00086640604
0.0017098071
0.0020752094
0.0021688337
0.002075119
0.0018590836
0.0015666801
0.0012948987
0.0011230946
0.0008822465
0.00054123686
0.00029381708
0.00020332094
0.00013074426
0.00013153289
0.00019149319
0.00035079372
0.00060531099
0.00084982615
0.00087994603
0.00071309536
0.00049459008
0.00059074184
0.0010141231
0.0013442967
0.0012850111
0.00096911431
0.0007187844
0.0012275988
0.0018995308
0.0022731763
0.002316277
0.0021442147
0.0018177438
0.0014126351
0.0011524566
0.0010591723
0.00078481922
0.00044463079
0.00023947334
0.00013734759
0.0001344255
0.00019342293
0.00015054515
0.00030264008
0.00051706006
0.00071540886
0.00072858036
0.00059000558
0.0004837709
0.00069820094
0.001110753
0.0013519631
0.0012564886
0.00088643453
0.00069152243
0.001041271
0.0020434423
0.0024466672
0.0024473604
0.0021946373
0.0017433413
0.0012491313
0.0010818839
0.0010578496
0.00077081982
0.00048218623
0.0002564783
0.00012653178
0.00010227403
9.572066e-05
0.00017274215
0.0002970702
0.00045576107
0.0005924021
0.0005959406
0.00052456545
0.00055395859
0.00085739924
0.0011924037
0.0013310176
0.0011929212
0.00086566489
0.00065945559
0.0011129551
0.0020976877
0.0025868464
0.0025635698
0.0022321795
0.0016478815
0.0011349675
0.0010695796
0.0010832195
0.0008423823
0.00059201314
0.00032756677
0.00019409331
0.00014927095
0.00015655575
0.00021229011
0.00030919321
0.00043114698
0.0005293017
0.00055385448
0.00057868752
0.00073371565
0.0010227824
0.0012408266
0.0012756752
0.0010769081
0.00077042003
0.00061792164
0.001071777
0.0020655251
0.0026698142
0.0026602383
0.0022609555
0.0015505229
0.0010563347
0.0010616942
0.0011239828
0.00097653624
0.00074176615
0.00046062108
0.00032425559
0.00027640574
0.00027150509
0.00031736428
0.00040915741
0.00051980736
0.00061140069
0.00067849681
0.0007786316
0.0009574523
0.0011461487
0.0012408422
0.0011801179
0.00091950445
0.00060418025
0.001065619
0.0019640362
0.002667025
0.0027233646
0.0022826997
0.0014762775
0.00099864357
0.0010450614
0.0011785544
0.0011125479
0.00089834778
0.00062076492
0.00050517139
0.00049611947
0.00052832417
0.00058819476
0.00067831429
0.000772922
0.00085095647
0.00092118453
0.0010101956
0.001115668
0.001186528
0.0011700499
0.0010221489
0.00072432797
0.00048249022
0.0017559131
0.0025455181
0.0027220353
0.0022946533
0.0014451518
0.00095113094
0.0010252293
0.0012178098
0.0012211065
0.0010353186
0.00075446833
0.00064353532
0.0006769101
0.00075264168
0.00083618895
0.00091903664
0.00098571127
0.0010359539
0.0010782099
0.0011164355
0.0011376776
0.0011154265
0.0010218457
0.00082961711
0.00055202101
0.00036328394
0.0012693972
0.002270782
0.0026148722
0.0022815123
0.0014495551
0.00091513122
0.00099949435
0.0012394714
0.0013075532
0.0011634012
0.00086988443
0.00069499354
0.00070987004
0.00079919119
0.00089091959
0.00095022498
0.00099626257
0.001028682
0.0010465008
0.0010464515
0.0010194907
0.00095132371
0.00081800242
0.00060676492
0.00043008978
0.00031935841
0.0011937017
0.0017999008
0.0023578142
0.0021999816
0.0014562355
0.00089912334
0.00096609777
0.0012372265
0.0013728838
0.0012973712
0.0010424417
0.00078061404
0.000671068
0.00067704253
0.00074758009
0.00081479363
0.00084634479
0.00086449255
0.00086920751
0.0008559142
0.0008149882
0.00073078574
0.00058791023
0.00039902063
0.00025803859
0.0012122644
0.0019527106
0.002000455
0.0014282612
0.00089082056
0.00092226366
0.0012051685
0.0014042606
0.0014250202
0.0012825475
0.001058845
0.00083873365
0.00070528703
0.00063579633
0.00063348098
0.00066058753
0.00067739463
0.00068375937
0.00067335292
0.00063495734
0.00056166752
0.00046970311
0.00035029929
0.0013677548
0.0017024296
0.0013422333
0.00086095056
0.00085342846
0.0011299249
0.0013782814
0.001493525
0.0014819095
0.0013936248
0.0012584035
0.001107912
0.00097755088
0.00088637307
0.00083539922
0.00080960053
0.00078067057
0.00073725318
0.000674232
0.00061803195
0.00050169199
0.00053601194
0.0013626175
0.0012436958
0.00081373177
0.00074702316
0.00099041503
0.0012686843
0.0014685022
0.0015694288
0.0016063545
0.0015985106
0.0015548456
0.0014866068
0.0014063485
0.0013207052
0.0012241719
0.0011092732
0.00097589721
0.00085268466
0.00069808687
0.00078209032
0.0012104075
0.00083041623
0.00059952835
0.00077209022
0.0010389363
0.0013023455
0.0014917557
0.0016224162
0.001708467
0.001758912
0.0017701754
0.0017294869
0.001630363
0.0014746491
0.0012744533
0.0010558781
0.00084869444
0.00087986437
0.001051129
0.00048783489
0.00049678604
0.00068561307
0.00094221238
0.0011842992
0.0013778216
0.0014996391
0.0015632783
0.0015650463
0.0015029868
0.0013982819
0.001244694
0.0011015721
0.00094812677
0.00027078119
0.00035689792
0.0004857689
0.00067811508
0.0008916097
0.0010310121
0.001117997
0.001138413
0.0010748015
0.0010238406
0.00095544582
0.00092310625
0.00056741781
0.00063174494
0.00068681852
0.00073461556
0.00077699673
0.0011612033
0.0011492148
0.001182916
0.0011991788
0.0011246656
0.0010200356
0.00088410367
0.00068317138
0.00061676215
0.001363003
0.0018940741
0.0021045611
0.0022061076
0.0022352398
0.0021746639
0.0020419938
0.0018519721
0.0015899693
0.0012938347
0.00097678333
0.00071170327
0.00041943072
0.00032566957
0.001350834
0.0019333381
0.0023930671
0.0026512818
0.0027519495
0.0027368424
0.0026474938
0.002506648
0.0023416638
0.0021618651
0.0019571104
0.0017203944
0.0014263497
0.0011086992
0.00076655352
0.00045971971
0.00031801989
0.0015032171
0.0020032595
0.0023676079
0.0025744196
0.0026302599
0.0025930999
0.0025163284
0.0024259403
0.0023335726
0.002238878
0.0021366163
0.0020184459
0.0018711186
0.00166805
0.0013950834
0.0010645854
0.00071125274
0.00051053118
0.00054130388
0.001472662
0.0016484304
0.0018712081
0.0019863658
0.0019768374
0.0019014915
0.0018144763
0.00175906
0.001753293
0.0017805319
0.0018194633
0.0018495353
0.0018541961
0.001818914
0.0017227446
0.0015362784
0.0012601082
0.00091709132
0.00063548867
0.00064650534
0.00077527533
0.0012198711
0.0011536515
0.0012256733
0.0012701537
0.0012430258
0.0011703377
0.0010890346
0.0010231001
0.00099169622
0.001007119
0.0010741475
0.0012065489
0.0013729131
0.0015295864
0.0016358851
0.0016603772
0.0015706205
0.0013552795
0.001046175
0.00074239861
0.00069686252
0.0008844425
0.00091009539
0.00077054013
0.00085658232
0.00097093847
0.0010340415
0.0010449821
0.0010256531
0.00099332116
0.00095355527
0.00090843136
0.00086321953
0.0008310581
0.00085867648
0.0009595215
0.0011567796
0.0013799451
0.0015309439
0.0015435178
0.0013885571
0.0011060144
0.00080434134
0.00074917548
0.00098360431
0.0011111403
0.0010512511
0.00037771704
0.00076621269
0.0010485528
0.0012267878
0.0013038193
0.0013248553
0.0013196139
0.001295607
0.0012500615
0.0011795299
0.0010926269
0.001000688
0.0009101282
0.00086912526
0.00095102118
0.0011567991
0.0013783717
0.0014822484
0.0013868805
0.0011230811
0.00082366421
0.00077157899
0.0010817542
0.0013100744
0.0010740795
0.00072519544
0.0011302529
0.0014204448
0.0015704543
0.0016241726
0.0016271016
0.0016020387
0.0015514542
0.0014712764
0.0013564948
0.0012067886
0.0010451857
0.00090474196
0.00081998684
0.0008407851
0.0010004237
0.001238567
0.0014043483
0.0013612497
0.0011137496
0.00081120026
0.00076498481
0.001149152
0.0014882004
0.0013069301
0.0010009136
0.00057423443
0.0010052621
0.0014791636
0.0017567612
0.0018573247
0.0018539281
0.0017997234
0.0017162101
0.0016088197
0.0014798635
0.0013203635
0.0011308947
0.00094398753
0.00078380142
0.00067343648
0.00068082642
0.00084129679
0.0011024733
0.0013150365
0.0013136761
0.0010824231
0.00077733201
0.00074303895
0.0011899356
0.0016178635
0.0014579628
0.0010468546
0.00064508367
0.0013635698
0.0018310063
0.0020355203
0.0020525639
0.0019655531
0.0018236492
0.0016484669
0.0014678257
0.001283554
0.0010603435
0.00081941193
0.00063007452
0.00052598044
0.00047044033
0.00048526101
0.00065379946
0.00094968294
0.0012085052
0.0012414747
0.0010268939
0.00072802883
0.00071757763
0.0012223244
0.0016949366
0.0015618333
0.0011044407
0.00076467456
0.0017010541
0.0021186331
0.0022504518
0.002183321
0.0019976704
0.001740265
0.0014632691
0.0012480315
0.0010361205
0.00075200921
0.00047963542
0.00029914004
0.00022880942
0.00024985752
0.00030810262
0.00048002982
0.00079460284
0.0010869966
0.0011439961
0.0009496932
0.00066421324
0.00071191501
0.0012651812
0.0017268136
0.0016222011
0.0011797719
0.00086166409
0.0010258696
0.0019961616
0.0023739037
0.0024367394
0.0022802734
0.001974137
0.0015804021
0.001244719
0.0010801256
0.000863482
0.00054270391
0.0002860376
0.00018794334
0.00011670042
0.00012382874
0.00019283416
0.00036119209
0.00067172457
0.0009687495
0.001026829
0.00083456497
0.00059257302
0.00075648635
0.0013236474
0.001718932
0.0016269663
0.0012121504
0.00083025099
0.0014487055
0.0022234692
0.0026045519
0.0026084348
0.0023559883
0.0019065432
0.0013839733
0.001094443
0.0010273465
0.00079826161
0.00047478431
0.00023019816
0.00012078603