/*--------------------------------*- C++ -*----------------------------------*\
| =========                 |                                                 |
| \\      /  F ield         | OpenFOAM: The Open Source CFD Toolbox           |
|  \\    /   O peration     | Version:  2406                                  |
|   \\  /    A nd           | Website:  www.openfoam.com                      |
|    \\/     M anipulation  |                                                 |
\*---------------------------------------------------------------------------*/
FoamFile
{
    version     2.0;
    format      ascii;
    arch        "LSB;label=32;scalar=64";
    class       volScalarField;
    location    "550";
    object      nut;
}
// * * * * * * * * * * * * * * * * * * * * * * * * * * * * * * * * * * * * * //

dimensions      [0 2 -1 0 0 0 0];

internalField   nonuniform List<scalar> 
150387
(
1.0110217e-05
1.753135e-05
2.1142119e-05
2.1833396e-05
2.0056166e-05
1.5408821e-05
8.5917697e-06
5.3334941e-06
3.6259381e-06
1.9085698e-05
2.7697222e-05
3.4822179e-05
3.8709205e-05
4.0259257e-05
3.9923384e-05
3.8172011e-05
3.4474853e-05
2.795934e-05
1.943576e-05
1.1228971e-05
4.6997695e-06
1.6083677e-05
2.7333044e-05
3.7117179e-05
4.4074876e-05
4.8204652e-05
5.0310437e-05
5.0842095e-05
4.9922791e-05
4.7859117e-05
4.4893224e-05
4.0475668e-05
3.3582193e-05
2.3794644e-05
1.3355383e-05
7.1713995e-06
3.4992969e-06
3.2918549e-06
2.0184232e-05
2.7429607e-05
3.2376305e-05
3.6788939e-05
4.1224486e-05
4.5897539e-05
4.9760591e-05
5.1708664e-05
5.1637853e-05
5.0030587e-05
4.78292e-05
4.506237e-05
4.0551323e-05
3.3077511e-05
2.2964144e-05
1.3105897e-05
8.4048393e-06
4.091323e-06
2.860871e-06
1.6411421e-05
2.3090441e-05
2.7384464e-05
3.1561559e-05
3.5394697e-05
3.8623286e-05
4.0887117e-05
4.2379991e-05
4.4030854e-05
4.572733e-05
4.6302353e-05
4.546472e-05
4.3957938e-05
4.1575239e-05
3.6518923e-05
2.8289995e-05
1.850833e-05
1.2405793e-05
8.8444666e-06
7.6416803e-06
1.6070272e-05
2.1758819e-05
2.2841495e-05
2.4589992e-05
2.6766415e-05
2.9140104e-05
3.1749766e-05
3.4077456e-05
3.5502993e-05
3.6161537e-05
3.7040315e-05
3.8436502e-05
3.9512263e-05
3.9498773e-05
3.8636588e-05
3.5827029e-05
2.9157809e-05
2.0365592e-05
1.5303011e-05
1.3471711e-05
1.2822625e-05
7.2165816e-06
6.6916466e-06
1.1737882e-05
1.5398493e-05
1.8346473e-05
2.039529e-05
2.2171538e-05
2.3660024e-05
2.4290924e-05
2.4795846e-05
2.5981177e-05
2.7207251e-05
2.8416505e-05
2.9712225e-05
3.1567463e-05
3.2694608e-05
3.3507934e-05
3.2756082e-05
2.7556202e-05
1.9326653e-05
1.584433e-05
1.6089307e-05
1.5118505e-05
1.4154198e-05
5.1620893e-06
2.2782328e-06
1.0495309e-05
1.7447363e-05
1.9589708e-05
1.9250589e-05
1.8223189e-05
1.8129043e-05
1.9215616e-05
2.0036709e-05
1.9691869e-05
1.8970136e-05
1.9099913e-05
2.0815913e-05
2.2481999e-05
2.4174594e-05
2.6379274e-05
2.7805545e-05
2.8472844e-05
2.4854204e-05
1.6927106e-05
1.530128e-05
1.6920985e-05
1.6769993e-05
1.7969173e-05
1.4266124e-05
8.5371596e-06
1.8004193e-05
2.4941842e-05
2.6104124e-05
2.3794979e-05
2.0069442e-05
1.6274179e-05
1.2980742e-05
1.0430239e-05
9.5657431e-06
1.1595436e-05
1.3991125e-05
1.5133938e-05
1.663085e-05
1.8304697e-05
2.0059032e-05
2.238523e-05
2.3703619e-05
2.147498e-05
1.4236335e-05
1.4408072e-05
1.7023175e-05
1.8478351e-05
2.1419246e-05
2.0152154e-05
1.0078961e-05
1.506871e-05
2.8090004e-05
3.5269762e-05
3.6540802e-05
3.4567539e-05
3.0874082e-05
2.6698579e-05
2.2146556e-05
1.7623275e-05
1.3451065e-05
9.493971e-06
8.1055009e-06
9.6800454e-06
1.2376635e-05
1.3864733e-05
1.5269763e-05
1.6935907e-05
1.9001105e-05
1.7691823e-05
1.1825899e-05
1.3922806e-05
1.7407725e-05
1.99384e-05
2.5479756e-05
2.491288e-05
1.4519022e-05
7.0785411e-06
2.4236024e-05
3.762203e-05
4.3549475e-05
4.3454831e-05
3.9684794e-05
3.4365133e-05
2.8123809e-05
2.292356e-05
1.7570723e-05
1.3557883e-05
1.0358143e-05
8.5290431e-06
7.178616e-06
7.7049683e-06
1.0336829e-05
1.1515953e-05
1.293206e-05
1.4695217e-05
1.4022541e-05
1.0167873e-05
1.3428113e-05
1.8297278e-05
2.1814543e-05
2.9912492e-05
2.9458996e-05
1.9052971e-05
1.2523967e-05
3.2602369e-05
4.4587932e-05
4.8976343e-05
4.730051e-05
4.2188248e-05
3.5304309e-05
2.8528292e-05
2.2338936e-05
1.7324138e-05
1.3525763e-05
1.0634758e-05
8.5953732e-06
7.8142885e-06
7.4700882e-06
8.2492052e-06
9.0452999e-06
9.7311691e-06
1.1185895e-05
1.0389654e-05
9.7455174e-06
1.3715236e-05
1.9667367e-05
2.5190938e-05
3.4003869e-05
3.3457937e-05
2.3433287e-05
7.0579e-06
1.8866207e-05
3.8884559e-05
4.971712e-05
5.2947806e-05
5.049994e-05
4.4058786e-05
3.5538743e-05
2.8356626e-05
2.1996027e-05
1.6923807e-05
1.2804017e-05
9.4819716e-06
7.3808264e-06
5.3791147e-06
5.1506399e-06
6.9821073e-06
7.9405704e-06
7.9313575e-06
8.8784804e-06
7.8445278e-06
1.0305338e-05
1.5046064e-05
2.2109547e-05
3.0117395e-05
3.7362269e-05
3.6284337e-05
2.6614547e-05
1.0186251e-05
2.2174898e-05
4.2716153e-05
5.3575968e-05
5.6693707e-05
5.3181095e-05
4.5183728e-05
3.6042205e-05
2.8314676e-05
2.1492441e-05
1.6004312e-05
1.1343917e-05
7.2191379e-06
5.6554258e-06
3.3822261e-06
5.1149424e-06
5.6774988e-06
7.4663061e-06
6.7955846e-06
6.9930874e-06
8.1660762e-06
1.1659105e-05
1.8086951e-05
2.6390823e-05
3.5135587e-05
3.9773201e-05
3.7664544e-05
2.8197744e-05
9.6056598e-06
2.3996195e-05
4.4498873e-05
5.6697798e-05
5.9896611e-05
5.4553607e-05
4.6149262e-05
3.7096018e-05
2.8289231e-05
2.1012756e-05
1.5365442e-05
8.9576214e-06
6.942507e-06
6.3403272e-06
4.2858347e-06
4.2148949e-06
6.0930584e-06
7.0170319e-06
6.4629959e-06
7.2741826e-06
1.0130177e-05
1.5399534e-05
2.2721039e-05
3.1638729e-05
3.8606479e-05
4.1113671e-05
3.8183309e-05
2.7271684e-05
9.1613995e-06
2.1224225e-05
4.4784286e-05
5.8774732e-05
6.146691e-05
5.4675397e-05
4.7669208e-05
3.7958526e-05
2.8558595e-05
2.1154668e-05
1.4913893e-05
8.1978771e-06
7.4298269e-06
7.4489046e-06
6.4929751e-06
6.4325824e-06
7.088394e-06
7.2092292e-06
7.4030301e-06
9.640716e-06
1.4254397e-05
2.0381673e-05
2.7933522e-05
3.5436623e-05
4.0427671e-05
4.1536994e-05
3.686235e-05
2.3924638e-05
3.6544739e-06
1.08853e-05
4.2582732e-05
5.9200269e-05
6.0539747e-05
5.5103721e-05
4.9276839e-05
3.8686463e-05
2.9418595e-05
2.2339049e-05
1.3716579e-05
9.9228866e-06
8.8324516e-06
7.9055637e-06
6.9372998e-06
6.920993e-06
7.0750371e-06
7.5886056e-06
9.5086098e-06
1.3627155e-05
1.8866876e-05
2.5242974e-05
3.1692084e-05
3.7568348e-05
4.1093682e-05
4.0246748e-05
3.3129061e-05
1.8027134e-05
5.2668189e-06
8.0157353e-06
3.7397907e-05
5.7312384e-05
5.7123994e-05
5.5299795e-05
4.9338888e-05
3.9036545e-05
3.0398362e-05
2.4314287e-05
1.2508515e-05
1.3627044e-05
1.1732455e-05
9.308022e-06
7.667279e-06
6.9408269e-06
7.7711745e-06
9.8547243e-06
1.3369938e-05
1.780929e-05
2.2913451e-05
2.825029e-05
3.378996e-05
3.8012126e-05
3.943726e-05
3.6037322e-05
2.6533037e-05
1.2117398e-05
2.7219554e-05
5.1925328e-05
5.2267231e-05
5.371814e-05
4.7856793e-05
3.8240389e-05
3.1147065e-05
2.6392878e-05
1.2507858e-05
1.7954919e-05
1.5993938e-05
1.2990514e-05
1.0156524e-05
8.5563533e-06
8.1603751e-06
1.0302282e-05
1.4351434e-05
1.8802419e-05
2.3529041e-05
2.7877942e-05
3.1870133e-05
3.4662734e-05
3.4331915e-05
2.8821886e-05
1.8116043e-05
6.3653259e-06
1.6014691e-05
4.1961214e-05
4.6715868e-05
4.9961467e-05
4.468046e-05
3.6225529e-05
3.1690861e-05
2.8655881e-05
1.3926811e-05
2.307581e-05
2.1805971e-05
1.8308426e-05
1.5019011e-05
1.2348998e-05
1.2171347e-05
1.2395311e-05
1.2702935e-05
1.4638157e-05
1.7377265e-05
2.1098878e-05
2.5618314e-05
2.8217894e-05
2.6861819e-05
2.0125203e-05
9.8384003e-06
4.9528227e-06
2.6586507e-05
3.9900439e-05
4.4239615e-05
4.0095826e-05
3.3098264e-05
3.1878416e-05
2.9767828e-05
1.6049325e-05
2.8069265e-05
2.814436e-05
2.5248474e-05
2.1814066e-05
1.9144884e-05
1.6710971e-05
1.627341e-05
1.7680153e-05
2.008306e-05
2.284792e-05
2.4760452e-05
2.5492856e-05
2.4499527e-05
2.0470137e-05
1.2392045e-05
5.8119753e-06
9.5779197e-06
3.1089289e-05
3.6343745e-05
3.5076999e-05
2.9227382e-05
3.1208779e-05
3.0220408e-05
1.777442e-05
3.2736986e-05
3.5097445e-05
3.3578253e-05
3.0279494e-05
2.6949246e-05
2.4721696e-05
2.3046709e-05
2.1533981e-05
2.0771854e-05
2.0750809e-05
2.0576635e-05
1.9682344e-05
1.7994998e-05
1.4907206e-05
8.3903287e-06
2.7455289e-06
1.6052231e-05
2.6846394e-05
3.108739e-05
2.511748e-05
2.867995e-05
2.7387684e-05
2.1933746e-05
3.685095e-05
4.0886002e-05
4.1335951e-05
3.9898887e-05
3.6338014e-05
3.2226933e-05
2.9210885e-05
2.6781279e-05
2.5047018e-05
2.4095628e-05
2.2815097e-05
2.0472e-05
1.6770688e-05
9.4475172e-06
3.601199e-06
1.4327263e-05
2.6548275e-05
2.0969541e-05
2.3939625e-05
2.4754832e-05
2.5558346e-05
3.9014581e-05
4.4447204e-05
4.6264232e-05
4.6514877e-05
4.4943294e-05
4.0955508e-05
3.5761655e-05
3.1161713e-05
2.7498605e-05
2.4249811e-05
2.1425793e-05
1.8766917e-05
1.4794592e-05
6.3199921e-06
1.2039401e-05
1.6560658e-05
1.7860567e-05
2.089697e-05
2.5305223e-05
3.7147772e-05
4.3477735e-05
4.6449591e-05
4.786226e-05
4.8416919e-05
4.7760442e-05
4.5276034e-05
4.0657989e-05
3.4081009e-05
2.7120953e-05
2.0613325e-05
1.3428627e-05
5.7564348e-06
5.8525993e-06
8.9882798e-06
1.4354753e-05
1.8004726e-05
2.8029579e-05
3.6359247e-05
4.1143787e-05
4.3373668e-05
4.4203651e-05
4.3553909e-05
4.0802979e-05
3.5735252e-05
2.8701615e-05
2.0493588e-05
1.1717464e-05
4.1082237e-06
3.0373214e-06
7.8606073e-06
1.3223168e-05
2.0759799e-05
2.7319801e-05
3.0570613e-05
3.1239791e-05
2.9680546e-05
2.4909876e-05
1.8804667e-05
1.1933994e-05
7.7344442e-06
5.3612911e-06
7.5591654e-06
8.9752332e-06
9.226855e-06
9.7108866e-06
6.4711211e-06
9.5061651e-06
2.2970021e-05
3.5755132e-05
3.9425883e-05
3.8360777e-05
3.4594319e-05
2.6963536e-05
2.3403009e-05
1.3468796e-05
2.1826991e-05
5.079019e-05
6.6548668e-05
7.9573455e-05
8.9970316e-05
9.5840319e-05
9.697719e-05
9.3215988e-05
8.3405981e-05
6.744922e-05
4.5305276e-05
3.1325848e-05
9.0569975e-06
5.4907277e-06
1.1080784e-05
4.0567026e-05
6.0348224e-05
7.8866144e-05
9.5336178e-05
0.0001084339
0.00011751382
0.00012253727
0.00012391427
0.00012176427
0.00011591925
0.00010505351
8.8051875e-05
6.5421315e-05
4.1670579e-05
1.7791627e-05
1.2071832e-05
1.4503086e-05
3.0093914e-05
4.4716591e-05
6.0568564e-05
7.5905128e-05
8.9728189e-05
0.00010202926
0.00011268716
0.00012127794
0.00012720294
0.00012981528
0.00012882942
0.00012350858
0.00011283865
9.3662244e-05
6.931657e-05
3.9850524e-05
2.0746853e-05
8.275687e-06
1.3873421e-05
2.2769374e-05
3.2146968e-05
4.2871904e-05
5.3407045e-05
6.3574007e-05
7.3633871e-05
8.3928201e-05
9.4384956e-05
0.00010467636
0.00011421113
0.00012194131
0.00012659312
0.00012719569
0.0001225666
0.00010970433
8.884733e-05
6.0697319e-05
3.4867253e-05
1.4768679e-05
1.0570529e-05
8.6208398e-06
1.7332162e-05
2.3658707e-05
3.156322e-05
3.9050109e-05
4.4708362e-05
4.9186927e-05
5.3793343e-05
5.970795e-05
6.7384752e-05
7.7745827e-05
9.0788593e-05
0.0001030492
0.00011341434
0.00012027381
0.00012198486
0.00011550142
9.9127161e-05
7.4607264e-05
4.6647501e-05
2.1152528e-05
1.4770286e-05
1.2204256e-05
1.2408915e-05
2.4649223e-05
4.0046381e-05
5.2954475e-05
5.941333e-05
6.1278688e-05
6.083173e-05
5.979806e-05
5.8387579e-05
5.8141049e-05
6.1117089e-05
6.9116045e-05
8.0748632e-05
9.4140007e-05
0.00010621188
0.00011407074
0.00011393623
0.00010223584
8.1174078e-05
5.4335031e-05
2.7053653e-05
1.8661989e-05
2.3093443e-05
1.1917904e-05
1.1155237e-05
3.9182839e-05
6.4796598e-05
8.0313229e-05
8.6063631e-05
8.4953095e-05
7.9515049e-05
7.1472319e-05
6.3076276e-05
5.6372396e-05
5.2220203e-05
5.1060523e-05
5.3789595e-05
6.1465723e-05
7.3918417e-05
8.8629044e-05
0.00010171317
0.00010710816
9.9939211e-05
8.1847329e-05
5.7767402e-05
3.1279149e-05
2.3358275e-05
2.9120443e-05
1.9854149e-05
3.0898061e-05
6.2439538e-05
8.8479691e-05
0.0001034168
0.00010863263
0.00010640166
9.8548931e-05
8.6712126e-05
7.2545423e-05
5.7218636e-05
4.3158481e-05
3.500663e-05
3.4759458e-05
4.1315816e-05
5.3172976e-05
6.9122541e-05
8.584865e-05
9.6758975e-05
9.3595962e-05
7.8135717e-05
5.7371489e-05
3.3520663e-05
2.8422287e-05
3.7083656e-05
3.3752389e-05
1.6162298e-05
7.3858689e-06
4.5620755e-05
8.7385068e-05
0.0001135779
0.00012543763
0.00012727515
0.00012209105
0.0001117573
9.839498e-05
8.1378289e-05
6.2871453e-05
4.4925266e-05
3.1441372e-05
2.2897768e-05
2.398967e-05
3.3719935e-05
4.9004271e-05
6.8059166e-05
8.3948747e-05
8.3721519e-05
7.1384074e-05
5.4569324e-05
3.3837391e-05
3.3548842e-05
4.695438e-05
4.3188302e-05
2.9302121e-05
1.768349e-05
6.9051061e-05
0.00010951615
0.00013125235
0.00013833777
0.00013524083
0.0001249209
0.00010971201
9.1455844e-05
7.1341713e-05
5.0726281e-05
3.3922028e-05
2.354238e-05
1.8076649e-05
1.5126195e-05
2.0022764e-05
3.1951709e-05
5.0060809e-05
6.8784589e-05
7.1318709e-05
6.3253885e-05
4.9755406e-05
3.3951374e-05
4.012197e-05
5.7807697e-05
5.2836271e-05
3.4582918e-05
1.2673086e-05
8.8456467e-05
0.00012510514
0.00014250235
0.00014509596
0.00013710207
0.00012182576
0.00010218522
8.0530048e-05
5.7675444e-05
3.6076946e-05
2.1467268e-05
1.3898476e-05
1.1209626e-05
1.0576619e-05
1.2818737e-05
2.1205438e-05
3.5665522e-05
5.3506916e-05
5.8189642e-05
5.5061022e-05
4.3992657e-05
3.7025837e-05
5.0005675e-05
6.8560421e-05
6.218518e-05
4.1260451e-05
8.0321162e-06
3.0240284e-05
0.00010098505
0.00013520165
0.00014939195
0.0001480006
0.00013547972
0.00011547221
9.2650211e-05
6.9848827e-05
4.5174402e-05
2.3760136e-05
1.2686958e-05
8.5358863e-06
6.039691e-06
6.2885249e-06
9.0291844e-06
1.5677161e-05
2.6371013e-05
4.0825975e-05
4.604998e-05
4.6864544e-05
4.0509701e-05
4.2876415e-05
6.2477597e-05
7.8192251e-05
6.9750838e-05
4.6929702e-05
1.6555391e-05
5.2570682e-05
0.00010713859
0.00014145113
0.00015265601
0.00014771798
0.00013112739
0.00010667878
8.3013528e-05
6.2434524e-05
3.6182038e-05
1.7237638e-05
1.0932196e-05
7.7425259e-06
3.0969666e-06
7.4025102e-06
7.9001506e-06
1.3689365e-05
2.1403526e-05
3.1072263e-05
3.7260573e-05
4.1187458e-05
4.2012497e-05
5.3556308e-05
7.6118586e-05
8.6442235e-05
7.4483669e-05
4.2061956e-05
1.7416327e-05
3.9870596e-05
0.00010760185
0.00014349573
0.00015220021
0.00014472088
0.00012467942
9.6829173e-05
7.5959994e-05
5.9812448e-05
3.2684444e-05
1.9375867e-05
1.2389522e-05
6.8499399e-06
5.2292324e-06
6.016255e-06
8.7700431e-06
1.2584928e-05
1.8245508e-05
2.6382344e-05
3.5085959e-05
4.3186264e-05
5.3003951e-05
7.0225478e-05
8.8483716e-05
9.1842591e-05
7.5381665e-05
4.6714346e-05
1.6769411e-05
4.0477861e-05
0.00010258542
0.00014167614
0.00014804242
0.0001395789
0.00011633582
8.8366994e-05
7.2820829e-05
6.0748201e-05
3.5542604e-05
2.6762746e-05
1.5616039e-05
9.2618844e-06
8.113733e-06
8.141001e-06
9.8038199e-06
1.3431595e-05
2.00813e-05
3.0060484e-05
4.2090371e-05
5.4802186e-05
7.0629679e-05
8.7043493e-05
9.7549727e-05
9.3479762e-05
7.0847631e-05
4.1883343e-05
1.241412e-05
3.0702998e-05
9.1821338e-05
0.00013445094
0.00014009477
0.00013247355
0.00010635515
8.0965121e-05
7.2275017e-05
6.2406032e-05
4.5999462e-05
3.8350813e-05
2.2965759e-05
1.4363715e-05
1.2551621e-05
1.3514634e-05
1.580102e-05
2.1509799e-05
3.142388e-05
4.4759508e-05
5.9390668e-05
7.4216704e-05
8.87316e-05
9.9400853e-05
0.00010132839
8.9372176e-05
5.9591378e-05
2.9521532e-05
1.9595698e-05
7.7348583e-05
0.0001213871
0.00012835229
0.0001228774
9.541942e-05
7.3385533e-05
7.2578276e-05
6.7451094e-05
6.1157221e-05
5.4590511e-05
3.5553956e-05
2.4121145e-05
2.0969803e-05
2.4149187e-05
3.073135e-05
4.0983641e-05
5.4792898e-05
6.9341071e-05
8.2477051e-05
9.3426948e-05
0.00010152057
0.00010401517
9.7654024e-05
7.7534756e-05
4.1500508e-05
2.1710279e-05
5.8413307e-05
0.00010255288
0.00011241368
0.00011023828
8.4277923e-05
6.608704e-05
7.3439055e-05
7.4490758e-05
7.6108594e-05
7.261877e-05
5.217809e-05
3.8284375e-05
3.3666349e-05
3.6318638e-05
4.5262856e-05
5.856097e-05
7.2608198e-05
8.4820127e-05
9.3014625e-05
9.8332931e-05
0.00010093044
9.6868751e-05
8.3526344e-05
5.95272e-05
2.9599222e-05
1.5933508e-05
3.4942476e-05
7.8950947e-05
9.1930656e-05
9.4255002e-05
7.3101256e-05
5.9071174e-05
7.3344645e-05
8.1245985e-05
8.9062757e-05
9.0181139e-05
6.9840165e-05
5.3564887e-05
4.6801312e-05
4.8345593e-05
5.5163459e-05
6.2532086e-05
7.1548598e-05
8.0300748e-05
8.7545065e-05
9.1570331e-05
9.0556106e-05
8.1891851e-05
6.4706057e-05
3.9491858e-05
1.9658983e-05
5.4315226e-06
1.0114794e-05
5.052517e-05
6.7793618e-05
7.52235e-05
6.123037e-05
5.2610916e-05
7.0866638e-05
8.6472067e-05
9.8951026e-05
0.00010433412
8.7864362e-05
6.9698782e-05
5.6808815e-05
5.2785432e-05
5.6196168e-05
6.3875e-05
7.0492932e-05
7.4874434e-05
7.7299674e-05
7.5882044e-05
6.9326625e-05
5.6269151e-05
3.7123512e-05
1.6595206e-05
6.948321e-06
2.5598586e-05
4.3211586e-05
5.4374164e-05
4.7970434e-05
4.5812141e-05
6.6216885e-05
8.9152062e-05
0.00010550342
0.00011439093
0.00010495417
8.9648719e-05
7.2696874e-05
5.8905471e-05
4.9840769e-05
4.7599413e-05
4.9848304e-05
5.1525835e-05
5.0425867e-05
4.645325e-05
3.9136717e-05
2.9029518e-05
1.8174534e-05
1.576447e-05
2.0045962e-05
3.4949717e-05
3.4693757e-05
3.4626657e-05
5.6816215e-05
8.6249938e-05
0.00010479527
0.00011761849
0.00011632607
0.00010764886
9.4151722e-05
7.8651703e-05
6.4471392e-05
5.336362e-05
4.6794278e-05
4.1827359e-05
3.633397e-05
3.0099512e-05
2.3143569e-05
1.648963e-05
1.2568769e-05
8.3636459e-06
1.978629e-05
2.4373089e-05
2.140084e-05
4.1452371e-05
7.5398377e-05
9.4958937e-05
0.00011148671
0.00011709012
0.0001158395
0.00010955751
9.8918301e-05
8.5510941e-05
7.1343517e-05
5.8000442e-05
4.6252858e-05
3.610931e-05
2.6836654e-05
1.9258437e-05
1.477328e-05
1.1600373e-05
1.5969477e-05
1.3767587e-05
2.4368386e-05
5.4368767e-05
7.245962e-05
9.2956933e-05
0.00010455325
0.00010895333
0.00010891001
0.00010472147
9.6692861e-05
8.5193717e-05
7.1187007e-05
5.6146514e-05
4.2010875e-05
2.968434e-05
1.6293741e-05
1.1627886e-05
1.3593586e-05
1.2501298e-05
2.7745579e-05
3.7508967e-05
5.850622e-05
7.5197619e-05
8.4361045e-05
8.6980456e-05
8.4614705e-05
7.7922728e-05
6.7525232e-05
5.5565872e-05
4.2446705e-05
3.0202559e-05
1.7730213e-05
9.6186595e-06
8.3792985e-06
2.1962601e-05
3.221121e-05
4.8359072e-05
5.4799227e-05
5.5449379e-05
5.1689975e-05
4.3934177e-05
3.6349101e-05
2.4504894e-05
8.5381194e-06
7.1721995e-06
1.5571949e-05
1.72831e-05
1.7546714e-05
1.3589824e-05
1.0836149e-05
2.4076564e-05
3.8075298e-05
4.4897706e-05
4.4489459e-05
4.0633824e-05
3.2489324e-05
2.3138463e-05
1.4538712e-05
2.6340244e-05
6.5967164e-05
8.7255674e-05
0.00010375936
0.00011674739
0.00012339979
0.00012371325
0.000117759
0.00010349412
8.2327914e-05
5.4565205e-05
3.7153706e-05
1.0793724e-05
6.301248e-06
1.2339505e-05
5.405918e-05
8.4907239e-05
0.00010963573
0.00012891137
0.0001427712
0.00015161946
0.00015585693
0.00015629545
0.0001529746
0.00014503419
0.00013105717
0.00010932902
8.0851604e-05
5.0799913e-05
2.0373949e-05
1.2293532e-05
1.648269e-05
4.3558083e-05
6.8489151e-05
9.218457e-05
0.00011162871
0.00012671612
0.00013832867
0.00014743195
0.00015441761
0.00015922543
0.00016139459
0.00016012133
0.00015387383
0.00014091854
0.00011677459
8.6546134e-05
4.8290116e-05
2.2199505e-05
9.9836304e-06
1.5951991e-05
3.19363e-05
4.914941e-05
6.6399258e-05
8.075069e-05
9.1973311e-05
0.00010084558
0.00010960221
0.00011926242
0.00012963598
0.00014003317
0.00014927721
0.00015584841
0.00015785541
0.00015326808
0.00013753856
0.00011222173
7.5423771e-05
3.8622679e-05
1.7163897e-05
1.2669635e-05
1.0624434e-05
2.2142269e-05
3.2758277e-05
4.5694028e-05
5.7226479e-05
6.5722919e-05
6.9835918e-05
7.225747e-05
7.6386369e-05
8.1822773e-05
9.1040152e-05
0.00010576623
0.00012222649
0.0001375465
0.00014882704
0.00015312289
0.00014608432
0.00012673634
9.4941154e-05
5.4773367e-05
2.5817993e-05
1.9559313e-05
1.4798184e-05
1.414363e-05
2.8294076e-05
5.031412e-05
7.1385569e-05
8.4671587e-05
8.9647185e-05
8.7797355e-05
8.3558071e-05
7.8707781e-05
7.4849658e-05
7.4840431e-05
7.9584127e-05
9.2408096e-05
0.0001119445
0.0001309955
0.00014432561
0.00014610647
0.00013297174
0.00010604791
6.7334935e-05
3.4968364e-05
2.7400697e-05
3.0988338e-05
1.3984716e-05
1.3178217e-05
4.548261e-05
7.9873879e-05
0.00010353678
0.0001158272
0.00012008561
0.00011865729
0.00011280758
0.00010356293
9.1935826e-05
8.016757e-05
7.1183324e-05
6.7295271e-05
7.1879592e-05
8.7274489e-05
0.00010912426
0.00012968651
0.00014059746
0.00013278041
0.00011034777
7.5096625e-05
4.2395361e-05
3.6330023e-05
4.3371917e-05
2.5901638e-05
3.675075e-05
7.7539776e-05
0.00011178989
0.00013298702
0.00014310885
0.00014521373
0.00014079534
0.00013164581
0.00011789614
0.00010061156
8.1346412e-05
6.3700495e-05
5.2665077e-05
5.2000399e-05
6.3054126e-05
8.4998261e-05
0.00011092724
0.00013027204
0.00012837503
0.00010969793
7.8019476e-05
4.7305125e-05
4.5179682e-05
5.7035803e-05
4.5595769e-05
1.9105589e-05
7.7366936e-06
5.4173663e-05
0.00010804294
0.0001426356
0.00015943138
0.00016432414
0.0001610774
0.0001522264
0.00013782399
0.00011881016
9.7047801e-05
7.483149e-05
5.6265042e-05
4.2041642e-05
3.5392926e-05
4.1538616e-05
6.1087044e-05
8.9970573e-05
0.00011619854
0.00012044329
0.00010521815
7.735775e-05
4.9804084e-05
5.3820011e-05
7.1020306e-05
6.0065634e-05
3.3999753e-05
1.8234214e-05
8.3979531e-05
0.00013673171
0.00016489442
0.00017495192
0.0001730366
0.00016262857
0.00014570836
0.00012399145
9.884994e-05
7.244138e-05
4.9932494e-05
3.5101951e-05
2.7379158e-05
2.2920753e-05
2.5624846e-05
4.1043006e-05
6.9426824e-05
9.9295079e-05
0.00010932868
9.7606518e-05
7.3103575e-05
5.009574e-05
6.257111e-05
8.4370803e-05
7.3319743e-05
4.1847533e-05
1.4252312e-05
0.00010939892
0.0001565781
0.00017844974
0.00018224423
0.00017340553
0.00015537366
0.00013131588
0.00010404064
7.4501112e-05
4.6610732e-05
2.7117521e-05
1.6554974e-05
1.3013504e-05
1.3426302e-05
1.6006232e-05
2.740413e-05
5.2436679e-05
8.3050833e-05
9.5865327e-05
8.7923395e-05
6.5218443e-05
5.1027832e-05
7.2867559e-05
9.6034118e-05
8.5180819e-05
5.2490519e-05
9.1314952e-06
3.5997833e-05
0.00012685876
0.00016955155
0.00018655655
0.00018462065
0.00016869796
0.00014281118
0.00011384274
8.5494587e-05
5.5932244e-05
3.0134925e-05
1.5538078e-05
1.0088641e-05
6.8066666e-06
7.2986636e-06
1.070144e-05
1.9977676e-05
4.0897196e-05
6.9162512e-05
8.1312653e-05
7.5513008e-05
5.6623698e-05
5.677148e-05
8.4920281e-05
0.00010542847
9.3683099e-05
6.0699569e-05
1.8044972e-05
6.2933239e-05
0.00013548418
0.00017736205
0.0001906774
0.00018356178
0.00016053042
0.0001270347
9.8146036e-05
7.4189489e-05
4.7362788e-05
2.5418441e-05
1.3433254e-05
7.8281022e-06
2.9773381e-06
7.0206993e-06
9.0420211e-06
1.7565509e-05
3.4878046e-05
5.7218066e-05
6.6487302e-05
6.2244159e-05
5.2926216e-05
6.6936293e-05
9.7969217e-05
0.0001129738
9.7880786e-05
5.1322901e-05
1.8748938e-05
4.5556041e-05
0.00013695036
0.0001801522
0.00019140831
0.00018012742
0.00015018317
0.00011137133
8.9097037e-05
7.0810889e-05
4.8840286e-05
2.9901536e-05
1.4583712e-05
7.1609627e-06
5.6686455e-06
6.384284e-06
1.0762419e-05
1.820338e-05
3.150817e-05
4.7291824e-05
5.5169244e-05
5.6187756e-05
5.9128253e-05
8.3770199e-05
0.00011026431
0.00011734303
9.7250103e-05
5.971509e-05
1.8058433e-05
4.5156412e-05
0.00013096698
0.00017886764
0.00018902347
0.00017496258
0.00013877031
0.0001023514
8.6714793e-05
7.4688498e-05
5.8589796e-05
3.8854743e-05
1.9355244e-05
1.15578e-05
9.4857061e-06
9.8371237e-06
1.3066746e-05
1.9636412e-05
3.0445072e-05
4.2746595e-05
5.2109325e-05
6.1060093e-05
7.7091887e-05
0.00010254414
0.00011981834
0.00011764106
8.9527772e-05
5.2844987e-05
1.4786061e-05
3.0769197e-05
0.00011723235
0.0001716136
0.00018302884
0.00016816377
0.00012758648
9.6189694e-05
8.786931e-05
8.500942e-05
7.4029093e-05
5.2609012e-05
2.9461794e-05
1.988353e-05
1.7075197e-05
1.6697143e-05
1.9907846e-05
2.7383063e-05
3.8636095e-05
5.1671894e-05
6.5331393e-05
8.11648e-05
0.00010060192
0.00011816964
0.00012431588
0.00011198697
7.4295788e-05
3.422351e-05
2.0273224e-05
9.8960129e-05
0.00015764535
0.00017260099
0.00015939214
0.00011791039
9.0989227e-05
9.2234082e-05
9.7499596e-05
9.1225193e-05
7.0097681e-05
4.4944372e-05
3.4698871e-05
3.4003553e-05
3.6991666e-05
4.2829601e-05
5.228307e-05
6.4416698e-05
7.7529482e-05
9.1049938e-05
0.00010532284
0.00011887736
0.00012598234
0.00012091347
9.7446e-05
5.0934911e-05
2.4337956e-05
7.4302658e-05
0.00013594085
0.00015607163
0.00014782929
0.00011003166
8.5660779e-05
9.6312352e-05
0.00010828581
0.00010652929
8.8630486e-05
6.2790319e-05
5.1251523e-05
5.2915227e-05
5.9967945e-05
6.9741108e-05
8.0591783e-05
9.0786294e-05
0.00010076775
0.00011027942
0.00011875507
0.00012328357
0.00011969785
0.00010457806
7.498228e-05
3.5994828e-05
1.7322345e-05
4.2672256e-05
0.00010584506
0.00013160979
0.00013212352
0.00010182466
8.057874e-05
9.8416493e-05
0.00011681752
0.0001198687
0.00010676556
8.0896839e-05
6.4895875e-05
6.5438641e-05
7.221311e-05
8.282305e-05
9.1783527e-05
0.00010044925
0.00010766068
0.00011349571
0.00011662695
0.00011463932
0.00010485284
8.3684257e-05
5.0497129e-05
2.4540775e-05
6.3245429e-06
1.2698905e-05
6.5338001e-05
9.8680424e-05
0.00011007473
8.995978e-05
7.5331865e-05
9.6891099e-05
0.00012163041
0.00013080022
0.00012380356
0.00010116923
7.7684515e-05
7.0497628e-05
7.0957378e-05
7.9938436e-05
8.9358669e-05
9.6016718e-05
0.00010058312
0.0001021183
9.9097577e-05
8.8933176e-05
7.0508223e-05
4.4353085e-05
1.8756058e-05
8.7030775e-06
2.8323541e-05
6.1177752e-05
8.0848409e-05
7.2727444e-05
6.6807167e-05
9.0775687e-05
0.00012124906
0.00013682407
0.00013877724
0.00012504586
0.00010381747
8.3995329e-05
7.2382119e-05
6.526862e-05
6.6738426e-05
7.1667538e-05
7.2972138e-05
7.0264031e-05
6.2775128e-05
5.0582143e-05
3.5057653e-05
2.0692607e-05
1.7676498e-05
2.4843538e-05
4.9308951e-05
5.1599151e-05
4.9699087e-05
7.710953e-05
0.0001137898
0.00013402369
0.00014481038
0.00014184204
0.00013065522
0.00011537257
9.9607236e-05
8.6567961e-05
7.7072772e-05
7.009267e-05
6.3419565e-05
5.4937249e-05
4.4265946e-05
3.2065666e-05
2.0929891e-05
1.5139346e-05
1.0499723e-05
2.3767319e-05
3.2658067e-05
2.9809462e-05
5.5218073e-05
9.6333659e-05
0.00012007274
0.00013839709
0.00014522101
0.00014417623
0.00013809412
0.0001282445
0.00011612066
0.00010289649
8.911035e-05
7.4425549e-05
5.8572632e-05
4.2154731e-05
2.74105e-05
1.9309679e-05
1.3381617e-05
1.828056e-05
1.7082065e-05
3.0782714e-05
6.7920579e-05
9.0656295e-05
0.00011577947
0.00013097655
0.00013780066
0.00013918248
0.00013593085
0.00012849226
0.00011675236
0.00010106496
8.2241652e-05
6.1659886e-05
4.0431915e-05
2.2359393e-05
1.3737605e-05
1.5806208e-05
1.6455908e-05
3.3478971e-05
4.5392544e-05
7.1456452e-05
9.3259403e-05
0.00010682165
0.00011195651
0.00011069487
0.0001033795
9.0427192e-05
7.4812963e-05
5.619271e-05
4.2872727e-05
2.1232833e-05
1.1091531e-05
9.4617245e-06
2.4755679e-05
3.8843072e-05
5.9310902e-05
6.8070327e-05
7.0057651e-05
6.5579603e-05
5.3412054e-05
4.3211437e-05
2.7800301e-05
1.0537895e-05
8.0350428e-06
1.698665e-05
1.8722436e-05
1.9115101e-05
1.6522938e-05
1.159166e-05
2.5678861e-05
4.1429702e-05
5.1020401e-05
5.1371944e-05
4.7167946e-05
3.7085872e-05
2.4584329e-05
1.5439565e-05
2.906449e-05
8.0086042e-05
0.00010693376
0.00012699387
0.00014221929
0.00014934262
0.0001488057
0.00014089727
0.00012299549
9.7230476e-05
6.3670404e-05
4.2593708e-05
1.1962567e-05
6.7795025e-06
1.3635538e-05
6.8608731e-05
0.00010964553
0.00014010226
0.00016161968
0.00017552898
0.00018337948
0.00018611417
0.00018500392
0.00018019085
0.00017037201
0.00015392496
0.00012828392
9.4494311e-05
5.9455391e-05
2.1481982e-05
1.4337431e-05
1.8544311e-05
6.0514352e-05
9.7041449e-05
0.00012785675
0.00014966299
0.00016399971
0.00017348534
0.00017990699
0.000184305
0.00018699694
0.00018772055
0.00018555954
0.00017852877
0.0001640667
0.00013603816
0.00010235602
5.2917497e-05
2.2672057e-05
1.220899e-05
1.8280585e-05
4.5409191e-05
7.3245591e-05
9.773875e-05
0.00011439208
0.00012482088
0.00013114102
0.00013657396
0.0001436537
0.00015224374
0.00016156544
0.00017047689
0.0001774875
0.00018040233
0.00017636456
0.0001590174
0.00013192897
8.6172603e-05
4.0560829e-05
2.1130084e-05
1.5516431e-05
1.2735944e-05
2.9524862e-05
4.6691124e-05
6.5659679e-05
8.0633816e-05
8.9981453e-05
9.4557299e-05
9.5054361e-05
9.5470214e-05
9.8219393e-05
0.0001047473
0.00011755587
0.00013456715
0.00015243654
0.00016706812
0.00017422478
0.00016776131
0.00014764529
0.00011072633
6.09783e-05
3.2858403e-05
2.7496754e-05
1.8044645e-05
1.6758734e-05
3.3341041e-05
6.0846859e-05
8.6683535e-05
0.00010368287
0.00011132947
0.0001116632
0.00010712175
9.9574986e-05
9.1428343e-05
8.6575606e-05
8.9381087e-05
9.9305717e-05
0.0001193245
0.00014385794
0.00016274924
0.00016728577
0.00015410546
0.00012437697
7.8318663e-05
4.5739595e-05
4.161404e-05
4.18544e-05
1.6070977e-05
1.5238598e-05
4.7301668e-05
8.8969359e-05
0.00012014973
0.00013664254
0.00014322501
0.00014388058
0.00014034697
0.00013308702
0.00012223058
0.00010849081
9.4099828e-05
8.3117671e-05
8.0886186e-05
9.2894663e-05
0.00011806716
0.0001453263
0.00016065291
0.0001546054
0.00012990967
8.963065e-05
5.6483635e-05
5.6404884e-05
6.2452543e-05
3.3383066e-05
4.2721342e-05
9.2075019e-05
0.00013236984
0.00015631971
0.00016747853
0.00017036228
0.00016742498
0.00015954399
0.00014700035
0.00013043267
0.00011121783
9.187219e-05
7.4765918e-05
6.5161744e-05
6.9517874e-05
9.1468522e-05
0.00012392377
0.00014917873
0.0001507444
0.00013008714
9.4554347e-05
6.3793582e-05
6.9490506e-05
8.2178037e-05
5.8998558e-05
2.1150024e-05
8.2304125e-06
6.2285813e-05
0.00012590112
0.00016617741
0.0001846388
0.00018941976
0.00018572546
0.00017582723
0.00016052921
0.00014047886
0.0001174476
9.4519723e-05
7.5608213e-05
6.1352247e-05
5.0278344e-05
4.9668692e-05
6.7113589e-05
0.00010095285
0.00013414018
0.00014322929
0.00012646373
9.4516827e-05
6.7901119e-05
8.0595224e-05
9.9668902e-05
7.8700449e-05
3.8589162e-05
1.9427027e-05
9.8616934e-05
0.00016018179
0.00019163515
0.00020138639
0.00019766239
0.00018496428
0.00016531475
0.00014060696
0.0001125256
8.4027961e-05
5.9864386e-05
4.3689498e-05
3.5929567e-05
3.2275357e-05
3.2609521e-05
4.692935e-05
7.9791444e-05
0.00011729604
0.00013268287
0.0001196661
9.0651008e-05
6.9202674e-05
9.0416887e-05
0.00011421127
9.5341715e-05
4.9751407e-05
1.5800675e-05
0.00012929546
0.00018327186
0.00020664519
0.00020859643
0.00019604082
0.00017331089
0.00014381643
0.00011315328
8.1942201e-05
5.2780074e-05
3.1106179e-05