/*--------------------------------*- C++ -*----------------------------------*\
| =========                 |                                                 |
| \\      /  F ield         | OpenFOAM: The Open Source CFD Toolbox           |
|  \\    /   O peration     | Version:  2406                                  |
|   \\  /    A nd           | Website:  www.openfoam.com                      |
|    \\/     M anipulation  |                                                 |
\*---------------------------------------------------------------------------*/
FoamFile
{
    version     2.0;
    format      ascii;
    arch        "LSB;label=32;scalar=64";
    class       volScalarField;
    location    "550";
    object      p;
}
// * * * * * * * * * * * * * * * * * * * * * * * * * * * * * * * * * * * * * //

dimensions      [0 2 -2 0 0 0 0];

internalField   nonuniform List<scalar> 
150387
(
0.0051720443
0.0065581946
0.0051938854
0.0046200329
0.004320359
0.0041763209
0.0050521428
0.0048717856
0.010432459
0.0086849416
0.006765065
0.0046565116
0.0031576322
0.0020557357
0.0014726045
0.0013159608
0.0015268709
0.0022175066
0.0030592018
0.0037664634
0.0044595451
0.011479973
0.0086442255
0.0052912926
0.0025067545
0.00030205262
-0.0012540191
-0.0022382446
-0.0026135976
-0.0024845853
-0.0019353733
-0.0010100578
0.00014926086
0.0015068704
0.0027877654
0.0042640353
0.0050822687
0.011884117
0.010880821
0.0075913007
0.0035868826
-2.1436086e-05
-0.0028859821
-0.0050144461
-0.0064112583
-0.0071582633
-0.0073020324
-0.0069262714
-0.0061137665
-0.0049159307
-0.0034243437
-0.0016830477
0.00018004351
0.0021106516
0.0038314361
0.0053719462
0.011378524
0.010934065
0.0069430501
0.0023916016
-0.0019344467
-0.0054999124
-0.0082277196
-0.01017577
-0.011417686
-0.012018727
-0.012021083
-0.011480564
-0.010469607
-0.0090511891
-0.0073094155
-0.0053014961
-0.0031530554
-0.00095177977
0.0013538186
0.0038433033
0.006081703
0.0093662311
0.0060262661
0.0012005739
-0.0035104918
-0.007638865
-0.010905074
-0.01336742
-0.015161134
-0.016321151
-0.016874041
-0.016825433
-0.016191326
-0.015022708
-0.013393211
-0.011406517
-0.0091445574
-0.0067437714
-0.0043326117
-0.0019548899
0.0011234562
0.0044124043
0.0071686019
0.0080069919
0.005261324
0.00092115625
-0.0037687925
-0.0080887453
-0.01185413
-0.014928392
-0.01742169
-0.019369102
-0.020778432
-0.021579495
-0.021674759
-0.021037266
-0.019733038
-0.017873596
-0.015602491
-0.013049912
-0.010377779
-0.0077793218
-0.0053779181
-0.0021872997
0.0018748068
0.0056579895
0.0067356503
0.0072331902
0.0056553357
0.0024486867
-0.001663837
-0.0059818069
-0.010098034
-0.013843043
-0.017147434
-0.020098496
-0.022643116
-0.024707872
-0.026113857
-0.026635955
-0.02613789
-0.024714212
-0.022557
-0.019901084
-0.016958477
-0.01393104
-0.011099736
-0.0086778398
-0.0053667868
-0.0010827529
0.0030748011
0.0058871857
0.005910693
0.0040092778
0.00073727906
-0.0031153156
-0.0070593555
-0.010800601
-0.014366807
-0.01786331
-0.0212239
-0.024538058
-0.027676089
-0.03020573
-0.031609109
-0.031493826
-0.030001944
-0.027465944
-0.024292905
-0.020817622
-0.017325212
-0.014241086
-0.011658775
-0.0081089494
-0.0037016085
0.00066254205
0.0043658901
0.0064728209
0.0047833525
0.0022114298
-0.0013003394
-0.0052083222
-0.0092274185
-0.01315141
-0.016972047
-0.02072428
-0.024426703
-0.027997766
-0.031408713
-0.034740208
-0.037193659
-0.037499258
-0.035802442
-0.032653841
-0.028739522
-0.024555332
-0.020455922
-0.017169999
-0.014253841
-0.01042385
-0.0059100246
-0.0013449572
0.0027550867
0.0054632492
0.0056848289
0.003592781
0.00058217297
-0.0032336137
-0.0072994793
-0.011477712
-0.015622538
-0.019764949
-0.023985208
-0.028338012
-0.032837813
-0.037471864
-0.042009416
-0.045212864
-0.045540082
-0.042920542
-0.038399513
-0.033215843
-0.028056172
-0.023265778
-0.019801986
-0.016389601
-0.012266374
-0.0076916743
-0.0030162556
0.0011699533
0.0040288126
0.005041272
0.0024457747
-0.00083526054
-0.0049075325
-0.0091476723
-0.01349678
-0.017858668
-0.022324118
-0.027025972
-0.032068723
-0.037629734
-0.044111595
-0.051432303
-0.057107438
-0.05691353
-0.052228224
-0.045012487
-0.037637995
-0.031074446
-0.025824465
-0.021938395
-0.017979816
-0.013569434
-0.0089377294
-0.0042398081
1.8580658e-05
0.002947577
0.0044761508
0.004516933
0.0016664348
-0.0019152415
-0.0062197337
-0.010635837
-0.015143315
-0.019690061
-0.024412248
-0.029488539
-0.035062365
-0.041620901
-0.050348421
-0.061500511
-0.070004577
-0.069628926
-0.062431423
-0.051763966
-0.041432859
-0.033486719
-0.027911489
-0.023410486
-0.018948477
-0.014305348
-0.0096395014
-0.0049892146
-0.00085907414
0.0021091184
0.0042040617
0.0042513291
0.001447816
-0.0025599617
-0.0070834099
-0.011678385
-0.016318724
-0.020983083
-0.025828265
-0.031027313
-0.0366789
-0.043582119
-0.053851392
-0.069734412
-0.079779842
-0.073291326
-0.067388839
-0.055028747
-0.043214932
-0.034940638
-0.029005429
-0.024017466
-0.01922403
-0.014454908
-0.0097858432
-0.0052398484
-0.0011838371
0.0017371503
0.0034844369
0.0044489415
0.0015583479
-0.0026256864
-0.0074236385
-0.012188453
-0.016938971
-0.021636463
-0.026429781
-0.031387004
-0.036416766
-0.042326273
-0.051862836
-0.065144657
-0.075369754
-0.071860591
-0.065502339
-0.053321453
-0.042478996
-0.034744528
-0.028865221
-0.023712915
-0.018814911
-0.014039031
-0.0094356624
-0.005026389
-0.001232858
0.0017648194
0.0033633288
0.0055184944
0.0023072778
-0.0020593087
-0.0071271513
-0.01207594
-0.016951883
-0.021609747
-0.026197046
-0.030603604
-0.034495555
-0.038736797
-0.046607297
-0.055879639
-0.062343682
-0.063278254
-0.057753549
-0.04817644
-0.039650936
-0.033065125
-0.027606075
-0.022589479
-0.01778471
-0.013114564
-0.008647541
-0.0044167367
-0.00084768669
0.0018330121
0.0032735117
0.0065136085
0.0034502444
-0.00083648143
-0.006134914
-0.011264153
-0.016313104
-0.020903746
-0.025205939
-0.028905584
-0.031445702
-0.034477838
-0.040151975
-0.045876752
-0.049888872
-0.050623148
-0.047434337
-0.041444569
-0.035542501
-0.030314758
-0.025484854
-0.02080777
-0.016237619
-0.011763913
-0.0074926149
-0.0034864946
-0.00018523395
0.001876559
0.0031426388
0.0076984245
0.0052225032
0.0010337098
-0.0043548507
-0.0096717414
-0.014951996
-0.01954385
-0.023571797
-0.026525117
-0.027953248
-0.03039719
-0.034517571
-0.038150165
-0.04036235
-0.040419385
-0.038207682
-0.034889205
-0.031027868
-0.026966399
-0.022806589
-0.018567589
-0.014311913
-0.010091619
-0.0060474923
-0.0023095988
0.00070334796
0.0024238299
0.0073941018
0.0036294098
-0.0017644562
-0.0072274525
-0.012792348
-0.017500524
-0.021348111
-0.023664612
-0.024277161
-0.026386453
-0.029597754
-0.032304494
-0.033905039
-0.033983384
-0.032446186
-0.029738219
-0.026669259
-0.023412218
-0.019875385
-0.016082531
-0.012151291
-0.00818316
-0.004355016
-0.0008992065
0.0018183918
0.003061558
0.0093320324
0.0069300843
0.0016830458
-0.0038491112
-0.0097292699
-0.014730761
-0.018564422
-0.020394168
-0.02047684
-0.022337068
-0.024957483
-0.027191391
-0.028627822
-0.029010882
-0.028230525
-0.026423006
-0.023851366
-0.020742756
-0.017316265
-0.013705193
-0.0099758418
-0.0061904074
-0.0024997811
0.00058029862
0.0027628702
0.0034200321
0.010741588
0.0059579606
0.0005127155
-0.0056568978
-0.011139557
-0.01522217
-0.016732755
-0.016538749
-0.018205724
-0.020419454
-0.022320763
-0.023632897
-0.024189292
-0.023891789
-0.022764572
-0.020910119
-0.018413491
-0.015401972
-0.011946048
-0.0081867235
-0.0042618297
-0.00054239171
0.0024993956
0.0037264918
0.012143823
0.0099555541
0.0055992056
-0.00059597973
-0.0066278637
-0.011255476
-0.012763551
-0.012357339
-0.014004696
-0.015931191
-0.017582284
-0.018756251
-0.019333307
-0.019228388
-0.018422624
-0.016927502
-0.014785742
-0.012034785
-0.0087897251
-0.0051029368
-0.0012005275
0.0020763959
0.004235332
0.0035243025
0.013339121
0.010457109
0.0052043726
-0.001285202
-0.0066572392
-0.0084076808
-0.008062359
-0.0097295697
-0.011456182
-0.012908874
-0.013941382
-0.014454351
-0.014374666
-0.01366057
-0.01227633
-0.010219839
-0.0075369042
-0.0043318031
-0.00075464689
0.0026294946
0.0050858869
0.0060069452
0.013603153
0.010120294
0.004454072
-0.0016980307
-0.0037412904
-0.0039212852
-0.0055268886
-0.0070930972
-0.0083637824
-0.009236385
-0.0096305545
-0.0094545276
-0.0086575092
-0.0072050431
-0.0051315547
-0.0025159627
0.00061503266
0.0036344238
0.0061946048
0.0070647635
0.013019905
0.0098601406
0.0029835709
0.00079544529
-0.00012223946
-0.0015798297
-0.0029554897
-0.0040170755
-0.0046897869
-0.0049056063
-0.0045832501
-0.0037137239
-0.0022730246
-0.00038220556
0.0020081149
0.0049268547
0.0070566922
0.0085337504
0.011417582
0.0063436434
0.0040702293
0.0027399223
0.0014905554
0.00040364957
-0.00035180958
-0.00076885864
-0.00078581149
-0.00028615074
0.0006149614
0.0019746124
0.0036715671
0.0055166948
0.0073371546
0.0067981622
0.0047844549
0.0042209382
0.0032496144
0.0027297346
0.0023201604
0.0021104786
0.0022221807
0.0027026186
0.0035319137
0.0048927619
0.0058309716
0.0069709806
0.0040196781
0.0038488302
0.0038417373
0.0040404725
0.0050605383
0.0047355017
0.0073448662
0.0072059816
0.0066491356
0.0047299905
0.0042017917
0.0039364752
0.003881037
0.0047509452
0.0049778664
0.0098030905
0.0064899945
0.0048744374
0.0029590444
0.0017062577
0.00064699259
0.00031277788
0.00037948178
0.00076464928
0.0016625463
0.002645389
0.0036689198
0.0047030296
0.0052354143
0.0097131337
0.0096271244
0.0055889183
0.0026091455
0.0001828827
-0.0017165403
-0.0029744263
-0.0036576419
-0.0037591521
-0.0033987994
-0.002663992
-0.0015630843
-0.00034023984
0.0012268542
0.0022477287
0.0044886057
0.0046238859
0.010069815
0.0076675338
0.0046872624
0.0005975815
-0.0025541058
-0.0049836565
-0.0067702782
-0.0078892638
-0.0084252941
-0.0083867602
-0.0078602836
-0.0069293429
-0.005613055
-0.0040448329
-0.0021711935
-0.00018374919
0.0018543101
0.0031767434
0.0054010558
0.0094296084
0.0074766879
0.0040436597
-0.00062358184
-0.0045750763
-0.0076842746
-0.010047901
-0.011692163
-0.012700064
-0.013116764
-0.012962485
-0.012298113
-0.011191894
-0.0096900502
-0.0079160571
-0.0058736822
-0.0037600326
-0.0015279954
0.0010272301
0.0032315859
0.0061006588
0.0078506824
0.0063620582
0.0035918829
-0.0015646988
-0.0058117801
-0.009489622
-0.012442724
-0.014697958
-0.016365563
-0.017416698
-0.017875509
-0.017722641
-0.016971276
-0.015701172
-0.013987761
-0.011967717
-0.0097055959
-0.0074037401
-0.0050624643
-0.0027370538
0.00072492014
0.0033878316
0.0066694177
0.0075336295
0.0035630681
-0.0010332904
-0.0055272175
-0.0096035425
-0.013165571
-0.016164584
-0.018578543
-0.020461113
-0.021815495
-0.022575608
-0.022590754
-0.021823444
-0.020386696
-0.018412183
-0.016085964
-0.013546551
-0.011020292
-0.0085834376
-0.0062274656
-0.0028022419
0.0011827421
0.0052834028
0.0035492662
0.0073094967
0.0043526953
0.0013548428
-0.0029648798
-0.0072165789
-0.011226526
-0.014906333
-0.018249731
-0.021312895
-0.023954701
-0.026028808
-0.027423052
-0.027842529
-0.027127628
-0.025476089
-0.023112427
-0.020336663
-0.017383367
-0.014527925
-0.011945069
-0.0095047052
-0.0059761024
-0.0018696675
0.0023758911
0.0050314869
0.005546721
0.0030987002
-0.00068594013
-0.0047411861
-0.0087883667
-0.01262968
-0.01627558
-0.019766567
-0.023159899
-0.026516661
-0.029675305
-0.032230565
-0.033495511
-0.032969712
-0.031056846
-0.02814064
-0.024725254
-0.021190189
-0.017875183
-0.015055956
-0.012389018
-0.0086518517
-0.0043631642
0.00014265897
0.0036009992
0.0056335155
0.0061064893
0.0040076974
0.0011162679
-0.0028128033
-0.0068226112
-0.010901958
-0.014862352
-0.018757679
-0.022651072
-0.02657715
-0.03054361
-0.03442889
-0.03793826
-0.040117152
-0.039709835
-0.037350926
-0.03357975
-0.029245512
-0.024925885
-0.021026411
-0.017891791
-0.014827204
-0.010773885
-0.006345603
-0.0017016374
0.0024811422
0.0054409651
0.0053576079
0.0026295546
-0.00052000061
-0.0046981573
-0.0088048558
-0.013012444
-0.017168639
-0.021391285
-0.025795477
-0.030465567
-0.035518766
-0.040852829
-0.046179
-0.049102442
-0.048320401
-0.044761812
-0.039526045
-0.033838876
-0.028487898
-0.023955498
-0.020355039
-0.016716559
-0.012386848
-0.0078639798
-0.0031896129
0.0010258258
0.0035167457
0.0047280254
0.0013597792
-0.0020060386
-0.0063457341
-0.01057401
-0.014929741
-0.019299866
-0.023859114
-0.028789491
-0.034255233
-0.040552933
-0.048143464
-0.055641232
-0.06054344
-0.059075331
-0.053669242
-0.045797364
-0.03822743
-0.031664129
-0.026489568
-0.022240618
-0.018041904
-0.01343276
-0.00882596
-0.0042024866
8.7101663e-05
0.0025229233
0.004137842
0.0042732194
0.00034015994
-0.0031678902
-0.0076170485
-0.011988805
-0.016480979
-0.02102152
-0.025828825
-0.031160402
-0.037224741
-0.044794366
-0.054620705
-0.061689767
-0.069006653
-0.068951699
-0.062040212
-0.051658932
-0.041798117
-0.034147942
-0.028372263
-0.023434599
-0.018721868
-0.013922039
-0.0093109396
-0.0047724566
-0.00080419776
0.0016690201
0.0041152864
0.0029956199
0.00042165504
-0.0039481844
-0.0084407185
-0.012963022
-0.017566748
-0.022187746
-0.027070828
-0.032488926
-0.038601757
-0.046700969
-0.057000384
-0.070291388
-0.079566759
-0.073548466
-0.065078341
-0.05349379
-0.043155533
-0.035227538
-0.029083816
-0.023703662
-0.018709435
-0.013852578
-0.0092672181
-0.0048975172
-0.00080581861
0.0015113582
0.0033893668
0.0039474881
0.00025823576
-0.0040315309
-0.008777616
-0.013418636
-0.018101757
-0.022683189
-0.027420505
-0.032468391
-0.03785518
-0.044706453
-0.053708383
-0.065634469
-0.075007377
-0.071459277
-0.061893387
-0.051101569
-0.041872733
-0.034550315
-0.028514785
-0.023074727
-0.018059685
-0.0132757
-0.0088038934
-0.0044867095
-0.0010976046
0.0015647425
0.0034327048
0.0049227576
0.0011665126
-0.0035357406
-0.0084687621
-0.013277565
-0.018025133
-0.022480293
-0.026895789
-0.031268169
-0.03550941
-0.040954247
-0.048349942
-0.055830448
-0.06068097
-0.059897524
-0.054362517
-0.046183797
-0.038854641
-0.032505938
-0.026896155
-0.021701358
-0.016870869
-0.012255405
-0.007952259
-0.0037647293
-0.00053952232
0.0015799527
0.0035834113
0.0061707302
0.0022798706
-0.0023965765
-0.0075116613
-0.012476661
-0.017308918
-0.021596302
-0.02561521
-0.029292101
-0.032147801
-0.03624165
-0.04147339
-0.046536583
-0.049710887
-0.049378549
-0.045826563
-0.04025621
-0.034751814
-0.029497833
-0.024535515
-0.019784194
-0.015259465
-0.010877959
-0.0067688551
-0.0027897452
0.00025490723
0.0018491769
0.0074662426
0.0041511002
-0.00054243953
-0.0057991204
-0.010924886
-0.015895849
-0.020067193
-0.023821322
-0.026696934
-0.028421244
-0.031616925
-0.035430546
-0.038805572
-0.040714928
-0.040464926
-0.03809983
-0.034423143
-0.030362849
-0.026110117
-0.021834176
-0.017578589
-0.013392853
-0.0092693175
-0.0053604977
-0.001687615
0.0011354731
0.0022353125
0.0058341033
0.001921816
-0.003329938
-0.0085865824
-0.013752405
-0.017916927
-0.021455308
-0.023614588
-0.024577026
-0.027121546
-0.030038027
-0.032623312
-0.034124741
-0.034127295
-0.032455189
-0.029683039
-0.026396791
-0.022861225
-0.019158661
-0.01532451
-0.011409892
-0.0074752359
-0.0036775175
-0.0002492631
0.0021503457
0.0028421919
0.0089844109
0.0050007601
-6.0531064e-05
-0.0053654975
-0.010730057
-0.015107424
-0.018535658
-0.020145749
-0.020673104
-0.02274309
-0.025064577
-0.027153591
-0.028493512
-0.028811772
-0.027969188
-0.026130778
-0.023556832
-0.020416809
-0.016985002
-0.013321137
-0.0095016916
-0.0056424122
-0.0018618699
0.00070349793
0.0027314822
0.0031924451
0.0098854783
0.0091961247
0.0042681545
-0.0011628939
-0.0068171513
-0.011572373
-0.015013399
-0.016318963
-0.01668134
-0.018425359
-0.020353582
-0.022098074
-0.023303507
-0.023788828
-0.023437698
-0.022273123
-0.020426499
-0.017939771
-0.014893957
-0.011410566
-0.0076098687
-0.0036905887
6.6725237e-05
0.0030876458
0.0037267785
0.010484622
0.0076056817
0.003964878
-0.0021631738
-0.007348161
-0.010936358
-0.01212115
-0.012561019
-0.014128613
-0.015820371
-0.017323378
-0.018393723
-0.018913023
-0.018786141
-0.017989584
-0.016509172
-0.014384492
-0.011618014
-0.0082852205
-0.0046024933
-0.00043112897
0.0018772107
0.0045891694
0.012489793
0.0078130723
0.0036591505
-0.0025372022
-0.0063607136
-0.0076155045
-0.0082998303
-0.0097863946
-0.011327697
-0.012647416
-0.013583862
-0.01403734
-0.013918325
-0.013191095
-0.011827386
-0.0098169132
-0.0071663209
-0.0038662628
-0.00010828036
0.002581086
0.0046511701
0.0047122144
0.012574328
0.0070134768
0.0024674954
-0.0014170942
-0.0030049314
-0.0041226948
-0.0056029975
-0.0070437446
-0.0082053088
-0.0090046159
-0.0093415535
-0.0091325342
-0.0083632709
-0.0069728483
-0.0050239641
-0.0024843566
0.0007679582
0.0031045629
0.0055146067
0.0051098296
0.011795527
0.0073605678
0.0023374434
0.001369881
-7.7685283e-05
-0.0014695648
-0.0028173493
-0.0038272032
-0.0044822546
-0.0046952965
-0.00435294
-0.0034853895
-0.0020641433
-0.00023819809
0.0020537824
0.005347784
0.0065178511
0.0062995624
0.0072814579
0.0061201962
0.0040881762
0.0027002263
0.0014873145
0.00035766525
-0.00030114059
-0.00066152712
-0.0006470857
3.2907995e-06
0.0008340495
0.0022526494
0.0033968551
0.0049102614
0.0081695827
0.0048411147
0.0041989962
0.0032780452
0.0026242985
0.0022194025
0.0020131616
0.0021011145
0.0024801636
0.0034841159
0.0045108792
0.005746258
0.0050074107
0.0039982579
0.0039490018
0.0037537904
0.0041250295
0.0046346806
0.0063294068
0.0064066635
0.0061968748
0.004077825
0.003658054
0.0034687826
0.0034879544
0.0045192399
0.0047349018
0.0081465705
0.0051813524
0.0038694758
0.0021757683
0.0010135944
-4.9788423e-05
-0.00027631326
-9.4984558e-05
0.00041090001
0.001431477
0.0024774152
0.003560287
0.0048117755
0.0053173747
0.0082256475
0.0081401486
0.004222287
0.0014413674
-0.00079658279
-0.0025786176
-0.0037330473
-0.0042871748
-0.0042691169
-0.0038071286
-0.0029850907
-0.0018106085
-0.00055544443
0.0010671699
0.0020005897
0.0045527578
0.0045665286
0.0084484154
0.0059561091
0.0032981777
-0.00064944219
-0.0036300161
-0.0058853164
-0.0075287791
-0.0085129643
-0.0089542041
-0.0088428754
-0.0082512009
-0.0072657803
-0.0059050025
-0.0043139472
-0.0024089723
-0.0004056874
0.0017239321
0.0028625134
0.0053079785
0.0080543114
0.006056839
0.0029569299
-0.0016189673
-0.0054963019
-0.0085207351
-0.010750046
-0.01232268
-0.013249402
-0.013598392
-0.013384399
-0.012665001
-0.011522762
-0.010007767
-0.0082462335
-0.0062195706
-0.0041139875
-0.0018277535
0.00089682709
0.0027976058
0.0056302242
0.0067738624
0.0052983096
0.0029415736
-0.0022460135
-0.0064514957
-0.010116488
-0.01305607
-0.015331052
-0.016939021
-0.017922608
-0.018332048
-0.018122886
-0.017325301
-0.016030108
-0.014319085
-0.012334412
-0.010122161
-0.0078594188
-0.0054884025
-0.0030210456
0.00042057879
0.002579271
0.0059201085
0.0073169537
0.0033114908
-0.0013322027
-0.0058317138
-0.0098928703
-0.013404322
-0.0163568
-0.018813333
-0.020823848
-0.02224994
-0.023008424
-0.022993083
-0.022183724
-0.020722571
-0.018753073
-0.01647266
-0.014003941
-0.011536259
-0.0090735562
-0.006564247
-0.0031627847
0.00053396363
0.0044525813
0.0022266308
0.0073791509
0.0039241007
0.00090232907
-0.0035606767
-0.0078610277
-0.011834228
-0.015422316
-0.01865919
-0.021580582
-0.024156537
-0.026300119
-0.027765691
-0.028202296
-0.027475976
-0.025819052
-0.023467438
-0.02074161
-0.017870114
-0.015080731
-0.012445402
-0.0098469498
-0.0063816275
-0.0025193774
0.0015783288
0.0039670279
0.0054870688
0.0027730032
-0.0011981508
-0.0054272785
-0.0095696074
-0.013460639
-0.017131066
-0.020638393
-0.024031882
-0.027327789
-0.030368992
-0.03281426
-0.033985921
-0.03335722
-0.031418465
-0.028516759
-0.025156083
-0.021707646
-0.018455812
-0.015524551
-0.01270419
-0.0090831057
-0.0049764856
-0.00056437788
0.0027073537
0.0046397656
0.0060337337
0.0038258362
0.00080624163
-0.0032950172
-0.0074362064
-0.011587715
-0.015584141
-0.019502855
-0.023423292
-0.027390467
-0.031434658
-0.035412731
-0.038945357
-0.040822091
-0.040216452
-0.037779847
-0.034009156
-0.02972974
-0.025493059
-0.021636051
-0.018287784
-0.015098143
-0.011246774
-0.0068974699
-0.0023194948
0.0018226159
0.0048356093
0.0053267422
0.0023661568
-0.00084377028
-0.0051547911
-0.0093391666
-0.013580349
-0.017750086
-0.021988724
-0.026418027
-0.031125337
-0.03624629
-0.041674879
-0.047019949
-0.049705721
-0.04874922
-0.045159226
-0.040025016
-0.034421409
-0.029144547
-0.024567945
-0.02067618
-0.01704023
-0.012857086
-0.0083439958
-0.0037895132
0.00050584259
0.0028141797
0.0044302325
0.00096258604
-0.0023950618
-0.0068081639
-0.011064001
-0.015422586
-0.019793103
-0.024364278
-0.029313294
-0.034803533
-0.041111838
-0.048686392
-0.055647489
-0.060202475
-0.058786788
-0.053701785
-0.046266155
-0.038921728
-0.032419801
-0.027062358
-0.022567804
-0.018384748
-0.013867963
-0.0092341634
-0.0047412398
-0.0003973272
0.0018803067
0.0037637458
0.0038993134
-0.00019283581
-0.003637535
-0.0081085145
-0.012470907
-0.01694432
-0.02148112
-0.02630187
-0.031652195
-0.037723871
-0.045285405
-0.054811082
-0.061279639
-0.068066346
-0.067905337
-0.061155823
-0.051918478
-0.042575484
-0.034911398
-0.028864228
-0.023757077
-0.01907381
-0.014311583
-0.0096782785
-0.00523121
-0.0013359177
0.0011580701
0.0038255491
0.0023790531
-0.00013927916
-0.0045346642
-0.0089739062
-0.013474269
-0.018039201
-0.022658595
-0.02755824
-0.032996006
-0.03914327
-0.047345171
-0.056911018
-0.069559786
-0.077950103
-0.072885994
-0.063924873
-0.053495222
-0.043773234
-0.03587209
-0.02949584
-0.02403226
-0.019054281
-0.014196636
-0.0095930459
-0.0052825015
-0.0011899469
0.0010622669
0.0030863645
0.0033741014
-0.00049094173
-0.0047330121
-0.0093849773
-0.013985299
-0.018609695
-0.023197603
-0.027936683
-0.032986079
-0.038504941
-0.045650486
-0.05386666
-0.065340361
-0.074139338
-0.07047426
-0.061096222
-0.051279464
-0.04244335
-0.035074698
-0.02889777
-0.023415891
-0.01839025
-0.013585316
-0.0091040953
-0.004796061
-0.0014641428
0.0013303963
0.0032458299
0.0041711304
0.00040865009
-0.0043745978
-0.009174685
-0.01391939
-0.018582015
-0.023052081
-0.027425191
-0.031762131
-0.036281389
-0.04205891
-0.049064171
-0.055894764
-0.060017896
-0.05917847
-0.054333757
-0.046657026
-0.039441546
-0.03300483
-0.027299271
-0.022058516
-0.017196484
-0.01255362
-0.0082301198
-0.0040205327
-0.00082199931
0.001296647
0.0034127919
0.005487843
0.0014204309
-0.003356307
-0.008371585
-0.01322737
-0.017929755
-0.022219379
-0.026129088
-0.029624353
-0.033001969
-0.037331104
-0.042348067
-0.047197858
-0.050217806
-0.049921405
-0.046505758
-0.040993016
-0.035402928
-0.030032336
-0.024980348
-0.020174867
-0.01561256
-0.01119192
-0.0070329003
-0.0029998802
8.182647e-05
0.0016736169
0.0066787067
0.0030590488
-0.0016575075
-0.0068346251
-0.011837988
-0.016577648
-0.020721758
-0.024195407
-0.026957576
-0.02933881
-0.032605332
-0.036272221
-0.039541807
-0.041475665
-0.041323054
-0.03909064
-0.035300644
-0.031092911
-0.026720358
-0.022362545
-0.018049086
-0.013813635
-0.0096285172
-0.0056343252
-0.0018959671
0.001006184
0.0020307456
0.004397925
0.00059729263
-0.0046005099
-0.0096399839
-0.014505182
-0.018577095
-0.021714075
-0.023892491
-0.025513011
-0.028022838
-0.030790381
-0.03326209
-0.034721642
-0.034766837
-0.033182328
-0.030449887
-0.027153765
-0.023546044
-0.019771098
-0.015873965
-0.011898032
-0.0078758679
-0.003962401
-0.00045105616
0.0020548166
0.0028202527
0.0077776795
0.0034193503
-0.0015596178
-0.0065821544
-0.011631063
-0.015742224
-0.018729445
-0.02048485
-0.021605686
-0.023588991
-0.025759938
-0.027739763
-0.029006388
-0.029277462
-0.028396045
-0.026497833
-0.023934628
-0.020884419
-0.017496365
-0.013844397
-0.0099925642
-0.0060483384
-0.0021577519
0.00039062193
0.0026619263
0.0032577693
0.0087994549
0.0074179771
0.0025504586
-0.0025359171
-0.007855409
-0.012196795
-0.015211205
-0.016721528
-0.017585795
-0.019225736
-0.021004775
-0.022659439
-0.023822091
-0.024280771
-0.023890196
-0.022659907
-0.020712604
-0.018201587
-0.015181526
-0.011708838
-0.0079050649
-0.0039587554
-0.00011124893
0.003000803
0.0037063988
0.0087417037
0.0054940809
0.0023925065
-0.0033716092
-0.0079981309
-0.01114738
-0.012587142
-0.013419538
-0.014879084
-0.016428223
-0.017849511
-0.01889568
-0.019423022
-0.019312639
-0.018523695
-0.017015313
-0.014826403
-0.012035437
-0.0086774176
-0.0049787841
-0.00072643338
0.0013316798
0.004792568
0.010344743
0.0057943228
0.0023035377
-0.0032766457
-0.0065666884
-0.0080894035
-0.0090718309
-0.010462476
-0.011887946
-0.013143228
-0.014060979
-0.014527085
-0.01444244
-0.013762627
-0.012435723
-0.010463959
-0.0078141827
-0.0045012488
-0.00073616322
0.0017732432
0.004195114
0.0043572022
0.010398568
0.0050327646
0.0016413198
-0.0016262903
-0.0034483203
-0.004753193
-0.0061616001
-0.007537783
-0.0086713094
-0.0094734368
-0.0098332125
-0.009668812
-0.0089868157
-0.0076900466
-0.0058515687
-0.0033912345
-0.00019070258
0.0019226396
0.00463791
0.0043971749
0.0097795931
0.00619152
0.0018985705
0.00099903832
-0.00051945889
-0.0018530918
-0.0032084214
-0.0042478467
-0.0049591259
-0.0052503104
-0.0049999551
-0.0042047634
-0.0028635964
-0.0011438343
0.0010455152
0.0042010678
0.005557114
0.0050023372
0.0056926335
0.0056796569
0.003929819
0.0024431198
0.0012178477
6.9781052e-06
-0.00072535417
-0.001172516
-0.0012452136
-0.00057592955
0.00018862415
0.0014436916
0.0023285324
0.0040477521
0.0074583258
0.0048263711
0.0041662605
0.0031788535
0.0024226162
0.0019888108
0.0017326287
0.0017600674
0.0020233778
0.0030517086
0.0037931342
0.0051641554
0.0040989286
0.0038977435
0.0038130509
0.003540142
0.0038841256
0.004279317
0.0052869994
0.0053667063
0.0053454337
0.0032956776
0.002991634
0.002912054
0.0030484929
0.0042224057
0.004522979
0.006550556
0.0035899735
0.0025933369
0.0010948079
8.3196745e-05
-0.00089421555
-0.00098799918
-0.00068278697
-4.4895654e-05
0.0011039379
0.0022741749
0.0034483141
0.0048326233
0.0053780615
0.0065058345
0.0063951192
0.0026048481
6.5416463e-06
-0.0020414081
-0.0036869537
-0.0046698267
-0.0050753726
-0.0049172624
-0.0043387057
-0.0034181017
-0.0021521996
-0.0008377199
0.00088897233
0.0017380046
0.0046220493
0.0044642979
0.0066775948
0.003904441
0.0015332775
-0.0022375451
-0.0049967031
-0.0070419719
-0.0084981784
-0.0093131182
-0.0096310819
-0.0094217997
-0.0087558146
-0.007717175
-0.0063124416
-0.0046949939
-0.0027321716
-0.00072448419
0.0015472584
0.0024131991
0.0049987099
0.0065015822
0.0042710595
0.0014697634
-0.0029638283
-0.0066814325
-0.0095272919
-0.011643263
-0.01309002
-0.013902992
-0.014155169
-0.013876272
-0.013117037
-0.011960494
-0.010447525
-0.0087083255
-0.0066830236
-0.004601572
-0.0022487836
0.00054041209
0.0021331715
0.0049751483
0.0057531211
0.0038649522
0.0018199489
-0.00338532
-0.007456559
-0.010986015
-0.013785275
-0.015915946
-0.017494541
-0.018455494
-0.018806138
-0.018557137
-0.0177427
-0.016459218
-0.014780972
-0.012852347
-0.010683493
-0.0084681442
-0.0060584324
-0.0035788046
-0.00016523506
0.0015989842
0.0050184824
0.0067545057
0.0026013845
-0.0021371632
-0.0066341762
-0.010660315
-0.014134753
-0.017034722
-0.019402288
-0.021306937
-0.022734359
-0.023471238
-0.023430519
-0.022608204
-0.021163165
-0.019236214
-0.017029532
-0.014630503
-0.012222058
-0.0097329443
-0.0071747066
-0.0038057468
-0.00034048226
0.0035151544
0.0013304961
0.0073892232
0.0034826549
0.00031917859
-0.0043549436
-0.0087686318
-0.012763272
-0.016329022
-0.019520663
-0.022385605
-0.024916349
-0.026987642
-0.02843484
-0.028801678
-0.028012299
-0.026343247
-0.024013341
-0.021351348
-0.01855311
-0.015819243
-0.013144315
-0.010473796
-0.0070255005
-0.0033954477
0.00064117556
0.0028372705
0.0054439157
0.0024343587
-0.0018285645
-0.0062656286
-0.010531972
-0.014488641
-0.018193252
-0.021718954
-0.02511864
-0.028409162
-0.031411717
-0.033763898
-0.034812634
-0.034075252
-0.032084596
-0.029171444
-0.025844969
-0.022452555
-0.019235076
-0.016223821
-0.013315048
-0.0096861735
-0.0057922051
-0.001453941
0.0016295976
0.0037025512
0.0059373024
0.0036087632
0.00042394572
-0.0039159541
-0.008212191
-0.0124691
-0.016525885
-0.020490974
-0.024462536
-0.028493049
-0.032614596
-0.036623128
-0.04011187
-0.041794591
-0.041073566
-0.038576631
-0.034790658
-0.030524362
-0.026313313
-0.022449858
-0.01896592
-0.01567255
-0.011788998
-0.0076148722
-0.0031239118
0.00097788542
0.0040191545
0.005147049
0.0020039274
-0.0012716784
-0.0057608004
-0.010037542
-0.014343065
-0.018548843
-0.022830221
-0.027327519
-0.032131435
-0.037353853
-0.042779236
-0.047969713
-0.050510549
-0.0494453
-0.045885867
-0.040861785
-0.035320002
-0.030051307
-0.025405322
-0.02132051
-0.01753979
-0.013360948
-0.0089819944
-0.004551928
-0.00023269995
0.0019769431
0.0040843533
0.00045307873
-0.0029145818
-0.0074211906
-0.011707251
-0.016086209
-0.020468753
-0.02508052
-0.03011537
-0.035726288
-0.042093398
-0.049481955
-0.05589789
-0.060082276
-0.058745037
-0.053963983
-0.046941906
-0.039844148
-0.033382584
-0.027901842
-0.023153873
-0.018877412
-0.014323203
-0.0097914985
-0.0053984527
-0.0010386968
0.0011494063
0.003314104
0.0033867794
-0.00084926809
-0.0042631154
-0.0087464593
-0.013088852
-0.017542756
-0.022071656
-0.026937646
-0.032402187
-0.038608636
-0.046175133
-0.055216746
-0.060934304
-0.067081215
-0.066913897
-0.060680089
-0.052304151
-0.043477341
-0.035882504
-0.029645621
-0.024303813
-0.019512407
-0.014717193
-0.010164187
-0.0058048902
-0.001954798
0.00056060473
0.0033942226
0.0015900309
-0.00082702472
-0.0052789371
-0.009656148
-0.01410068
-0.018613492
-0.023208085
-0.028160945
-0.033756085
-0.04007727
-0.04827167
-0.057097643
-0.068486689
-0.075905998
-0.071711066
-0.063221324
-0.053760646
-0.044587572
-0.036745144
-0.030201421
-0.024532618
-0.019452596
-0.014571691
-0.010012457
-0.0057672352
-0.0016370095
0.00051265291
0.0027158798
0.0026482758
-0.0014045567
-0.0056108785
-0.010167202
-0.014658338
-0.019201928
-0.023744745
-0.028539362
-0.033775295
-0.039519717
-0.046799631
-0.054259876
-0.064741617
-0.072721737
-0.069237928
-0.060692057
-0.051700725
-0.043272404
-0.035879083
-0.029538836
-0.02389156
-0.018776575
-0.013947402
-0.0094875864
-0.0051999406
-0.0019008738
0.00086195802
0.0029722346
0.0032693011
-0.00059283761
-0.0054158013
-0.010088299
-0.014679275
-0.019229373
-0.023617387
-0.028021406
-0.032556677
-0.037434099
-0.043339143
-0.049948394