/*--------------------------------*- C++ -*----------------------------------*\
| =========                 |                                                 |
| \\      /  F ield         | OpenFOAM: The Open Source CFD Toolbox           |
|  \\    /   O peration     | Version:  2406                                  |
|   \\  /    A nd           | Website:  www.openfoam.com                      |
|    \\/     M anipulation  |                                                 |
\*---------------------------------------------------------------------------*/
FoamFile
{
    version     2.0;
    format      ascii;
    arch        "LSB;label=32;scalar=64";
    class       volScalarField;
    location    "500";
    object      epsilon;
}
// * * * * * * * * * * * * * * * * * * * * * * * * * * * * * * * * * * * * * //

dimensions      [0 2 -3 0 0 0 0];

internalField   nonuniform List<scalar> 
150387
(
0.0019061093
0.0010600725
0.00094296143
0.00080967217
0.00066028808
0.00054311418
0.00055987038
0.0007081047
0.0038554868
0.001512592
0.0015297967
0.001553696
0.0015149359
0.0014132319
0.0012370406
0.00099260787
0.00072541036
0.00050021318
0.00033399733
0.00025156203
0.00037133164
0.0015104927
0.0017406692
0.001942571
0.0020540619
0.0020774498
0.0020023656
0.001842415
0.0016287055
0.0013750657
0.0010834913
0.00077491585
0.00050414151
0.00031239063
0.00022070559
0.0001953826
0.00057230355
0.0039204667
0.0016467716
0.0018422199
0.0019519223
0.0020157442
0.0021020386
0.0021946013
0.0022007006
0.0020690465
0.0018357115
0.0015687748
0.0012949875
0.0010065028
0.00071178009
0.00045116294
0.0002742204
0.00020447562
0.00029675384
0.0009013346
0.0058877676
0.0017961462
0.0018695267
0.0019349226
0.0019674994
0.0020055703
0.0020509244
0.0020775682
0.0020773011
0.0020313455
0.0018888587
0.0016533268
0.0013869257
0.0011214514
0.00085217379
0.00058700821
0.00035630873
0.00023247719
0.00031050704
0.00058935474
0.00078572237
0.0019946704
0.0018559953
0.0017970599
0.0017597497
0.0017781369
0.0018382354
0.0019207759
0.0020052133
0.0020327737
0.001983623
0.0018649153
0.0016704467
0.0014218962
0.0011710259
0.00092673484
0.0006834472
0.00043535502
0.00027052844
0.00033126624
0.00058045023
0.0007446436
0.0011543357
0.0021128827
0.0016158726
0.0014185402
0.001350622
0.0013761752
0.0014653324
0.0015760914
0.0017207426
0.0018754934
0.0019825331
0.0019714947
0.0018286125
0.0016261018
0.001400632
0.0011694853
0.00095158833
0.00073620433
0.00049128615
0.00032922245
0.00036728981
0.00059999981
0.00075175611
0.000858803
0.001303679
0.0013852757
0.00072435703
0.0008474653
0.0010156604
0.0011869248
0.0013140515
0.001424031
0.0015446897
0.0016799707
0.0018207925
0.001926949
0.0019367653
0.0018079004
0.0015764172
0.0013382919
0.0011285474
0.00093896564
0.00075530631
0.00052697583
0.00042505281
0.00042789938
0.00063111862
0.00078839777
0.00092468775
0.00088324646
0.00028482278
0.00036667475
0.00050256976
0.00069762374
0.00098618348
0.0013357693
0.0016731484
0.0018615478
0.0019146293
0.0019444064
0.0019732913
0.0019346313
0.0017972709
0.0015493688
0.0012734735
0.0010583784
0.0008982274
0.00075064871
0.00056979615
0.00055706
0.00051509796
0.00068836468
0.0008491042
0.0010222064
0.00099982611
0.0010430687
0.00029734505
0.0003990592
0.00054602361
0.00068122312
0.00076576542
0.00084170775
0.00094591323
0.0011194612
0.0014202012
0.0018665981
0.0020666552
0.0019676868
0.0018055385
0.0015540631
0.0012470252
0.00099507073
0.00084396084
0.00073375029
0.00067417396
0.00068820699
0.00063758889
0.00078174221
0.00093509047
0.0011505721
0.0010959113
0.00094103817
0.00039019922
0.00041089926
0.00061538681
0.00084714905
0.0010097836
0.001099295
0.0011295173
0.0011074027
0.0010418361
0.00096258579
0.00089367371
0.00092918927
0.0013181067
0.0017495772
0.0015821337
0.0012522132
0.0009595083
0.00078970744
0.00071704048
0.00087605241
0.00080444014
0.00080989301
0.00090896355
0.0010606071
0.0012585788
0.001158255
0.00092725034
0.00049189566
0.00060585924
0.00093438859
0.0011860046
0.0013185256
0.0013737615
0.001363188
0.0013035837
0.001209058
0.0011210139
0.0010663927
0.0010295136
0.00097643526
0.00090717572
0.0012335002
0.0012416874
0.00093843019
0.00075743935
0.00077483191
0.0010276199
0.00094798944
0.00099325127
0.0010600564
0.0012037077
0.0013029588
0.0011659794
0.00090362819
0.001277115
0.00057650595
0.00087344248
0.0012908626
0.0015260814
0.0016319148
0.0016633278
0.001617227
0.001531636
0.0014455222
0.0013841427
0.001349531
0.0013282945
0.001214407
0.00091307499
0.00072926968
0.00096830349
0.00090000574
0.00074203107
0.0010244845
0.0010924951
0.0010783812
0.0011190464
0.0011821397
0.0012698461
0.0012678719
0.0011208345
0.00085915593
0.00070548861
0.00072780114
0.0011689654
0.0016204276
0.0018555954
0.0019450534
0.0019377666
0.0018655371
0.0018011788
0.0017484822
0.001687807
0.0016453243
0.0016171416
0.0010013444
0.00098145396
0.00048388328
0.00066354252
0.00081872788
0.00089254187
0.0011362106
0.0011035546
0.0011099872
0.001157825
0.0012082091
0.001221234
0.0011726334
0.0010217675
0.00075230293
0.00058546416
0.00088918147
0.0014164455
0.0019143867
0.0021868368
0.0022146203
0.0021535217
0.0021095076
0.0020712639
0.0020072838
0.0019177413
0.0018560494
0.0013302648
0.00092561704
0.00042115951
0.00035155752
0.00061959314
0.00084059898
0.0010629553
0.0010419999
0.0010248789
0.0010587794
0.0011109653
0.0011250663
0.0010975148
0.0010310504
0.00086200026
0.0006004511
0.00050793813
0.00099547801
0.001588616
0.0021774271
0.0024778181
0.0023908317
0.0023201301
0.0023033262
0.0022416795
0.0021424953
0.0020288007
0.0019853342
0.00090144934
0.00099441482
0.00077349599
0.00064369646
0.00079001081
0.00091090568
0.00090761065
0.00088075943
0.00090774471
0.00095725084
0.00098626342
0.00097744579
0.00093155092
0.00083776219
0.00064893335
0.00045060949
0.0010156329
0.0010510837
0.0016914499
0.0023817458
0.0026452986
0.0024959447
0.0024391318
0.0023771511
0.0022721357
0.0021552529
0.0020383633
0.0018865228
0.00081261963
0.0010263586
0.0011500877
0.00085506945
0.00075145425
0.00074313257
0.00073875619
0.0007639758
0.00080052431
0.0008266142
0.00082868384
0.00079652733
0.00072519771
0.00061002592
0.00044634083
0.00033037386
0.00054770928
0.0020437362
0.0017060493
0.0024758936
0.0026573328
0.0025715803
0.002497834
0.0023427606
0.0022037749
0.0020600914
0.0020215407
0.001494747
0.0008281144
0.00097855454
0.0011787373
0.0012868193
0.0010916269
0.00077425792
0.00069483645
0.00069667121
0.00069581029
0.00068474975
0.00065540027
0.0005970236
0.000509241
0.00040138901
0.00029100185
0.00023388738
0.0016479963
0.0024264716
0.0025775244
0.0026160079
0.002514599
0.0022748202
0.0020945657
0.0019217411
0.0020161209
0.0012110257
0.00088281075
0.00097485369
0.0011411277
0.0012375206
0.0012320926
0.0011929556
0.0010166659
0.00074422637
0.00058681785
0.00050909425
0.00045544967
0.00039764515
0.00032967814
0.00026053417
0.00020514112
0.00024379371
0.0016177442
0.002226089
0.0024928794
0.0026111188
0.0025062228
0.0022368764
0.0019862042
0.0017829281
0.0019622599
0.0010454217
0.00094365169
0.0010321531
0.0011529645
0.0012451381
0.00121203
0.0010893443
0.00098007373
0.00089841939
0.00077187358
0.00060505551
0.00046765912
0.00036686304
0.00029315666
0.0002372118
0.00019510268
0.00021123601
0.0018757423
0.0023850542
0.0025669803
0.0024964874
0.0022090373
0.001920832
0.001661292
0.0018205703
0.00092380853
0.00098954462
0.0011045852
0.0012163483
0.001290958
0.0012802671
0.0011394838
0.00093385995
0.00075977388
0.0006476317
0.00057291541
0.00050523622
0.00045098933
0.0004041391
0.00036099105
0.00026078962
0.0015116191
0.002093666
0.0024719205
0.0025153663
0.00219353
0.0018818046
0.0015669437
0.0015994171
0.00081362427
0.0010032024
0.0011495192
0.0012901859
0.0013594883
0.0013530957
0.0012667148
0.0010999349
0.00093842317
0.00082655839
0.00075529095
0.00071949766
0.00071175182
0.00074545235
0.00075725389
0.0015935254
0.0017734726
0.0022471195
0.0025161513
0.0022320668
0.0018694526
0.0014911731
0.001351902
0.00069398073
0.00096439529
0.0011443321
0.0013179755
0.0014304851
0.0014349824
0.0013671029
0.0012793865
0.0011776305
0.0010930851
0.001033637
0.00099220647
0.00096056531
0.0010040007
0.0012017615
0.0020060444
0.0023714313
0.002331667
0.0018940388
0.0014383193
0.0010787256
0.00054428267
0.00086673506
0.0010850746
0.0012873881
0.0014636204
0.0015627055
0.0015410036
0.0014415593
0.0013459751
0.0012587726
0.0011699362
0.0010919109
0.0010226911
0.00096424016
0.0023621554
0.0024668412
0.002000972
0.0014192975
0.00078892149
0.00040734704
0.00069038752
0.00096413142
0.001199833
0.0013924968
0.0015549942
0.001659274
0.0016622065
0.0015520816
0.0013816066
0.0012162197
0.0011380688
0.0013085752
0.0031668387
0.0022281182
0.001339278
0.00051332583
0.00029162578
0.00045705704
0.00071298768
0.00097327369
0.0011708854
0.0012980747
0.0013672168
0.0013642513
0.0012906391
0.0011676503
0.0010195277
0.0022568011
0.0018248732
0.00031047926
0.00023045165
0.00030735029
0.00044251053
0.00061648348
0.00078547921
0.00090100957
0.00095476927
0.0009677154
0.00094848371
0.0014294221
0.00034784376
0.00041248535
0.00044372261
0.00052017569
0.00066747031
0.001367917
0.0054265528
0.0022385642
0.0014170844
0.0012482244
0.0010765921
0.00089192195
0.00073694502
0.00045361151
0.00059474151
0.0028031196
0.0022304209
0.0021334149
0.0020320205
0.0019115681
0.0017433105
0.0015314825
0.0012742203
0.00096936515
0.00069044665
0.00047944313
0.00031277883
0.00037502383
0.00046517139
0.0051018411
0.00247609
0.0024655867
0.0024551058
0.0023799345
0.0022430754
0.0020654601
0.0018699561
0.0016699873
0.0014616105
0.0012199949
0.00095180184
0.00067052192
0.00043991139
0.00025569706
0.00051052219
0.00042960298
0.004462723
0.0030185765
0.0027574131
0.0025700225
0.0023807102
0.0021898119
0.0020211791
0.0018815541
0.0017535979
0.001616788
0.0014645462
0.0012908856
0.001083742
0.00083236557
0.00057644241
0.00032778564
0.00039131289
0.00075090884
0.0013719659
0.0047450991
0.0029228937
0.0024942543
0.0022325119
0.0020238144
0.0018595207
0.0017417011
0.0016647791
0.0016146613
0.0015684787
0.0014996493
0.0013958346
0.0012649893
0.0011091072
0.00091042356
0.00067038228
0.0004059429
0.00032287526
0.00054455894
0.0010630073
0.0016390527
0.0061821327
0.0026183006
0.0019489097
0.001569248
0.0013259761
0.0011814925
0.001124465
0.001139673
0.0012121885
0.0013045364
0.0013706212
0.0013779796
0.0013175184
0.0012100913
0.0010806868
0.00092367197
0.0007156346
0.00046003474
0.00029735691
0.00041196737
0.00080097281
0.0012879626
0.0017556721
0.0025338103
0.001382917
0.00089507369
0.00067738184
0.00060601209
0.00062348233
0.00067950107
0.00078090373
0.00093043419
0.0010975253
0.0012346574
0.0012945875
0.0012596247
0.0011578335
0.0010333231
0.00089963364
0.00072447065
0.00048831462
0.00029332473
0.00032953367
0.00065837586
0.0010989068
0.0012472529
0.0025564384
0.0008752862
0.00068501631
0.00052949918
0.00047009644
0.00047493437
0.00051731153
0.0006117372
0.00075140166
0.00094109686
0.0011153012
0.0012319414
0.0012941808
0.0012997298
0.0012341194
0.0011119513
0.0009766918
0.00085328017
0.00070785888
0.00049523536
0.00029871657
0.00028941342
0.00056865131
0.00099885424
0.0012098694
0.0014085385
0.00029569757
0.00039703342
0.00051919428
0.00060329501
0.00065527608
0.00070136066
0.00076601645
0.00086403535
0.00099744207
0.0011727957
0.0013361108
0.0013955184
0.0013415851
0.0012261379
0.0010618013
0.00090527778
0.00078753943
0.00066949479
0.00048745954
0.0003142057
0.00028525373
0.00051935969
0.00093591662
0.0012100938
0.0012919395
0.0020068296
0.00084350406
0.00049435043
0.00070344414
0.00086548063
0.00094634403
0.00096806258
0.00095045227
0.00090672864
0.00083835296
0.00076633657
0.00074349495
0.00083345978
0.0010241906
0.0011361283
0.0010972766
0.00095896948
0.00080464679
0.00069978387
0.00060742042
0.00047446745
0.00034344735
0.00029877636
0.00050936703
0.0008971665
0.0012101005
0.0012549272
0.0012256282
0.00045596438
0.00074512906
0.0010308769
0.0011832994
0.0012215507
0.0011957905
0.0011392454
0.0010670348
0.00098020839
0.00086550073
0.0007220875
0.00057375371
0.00051426053
0.00064196449
0.00077993883
0.00076649268
0.00066702779
0.00058924533
0.00052691093
0.00048051655
0.00039658213
0.00034075564
0.00054204268
0.00089099462
0.0011996827
0.0012284306
0.0011351988
0.0010294157
0.0010674148
0.0013478419
0.0014459091
0.0014253139
0.0013556565
0.0012754263
0.0012015324
0.0011307701
0.0010344086
0.00087880419
0.00067916248
0.00049836342
0.00038858294
0.00046055652
0.0005410831
0.00051753295
0.00047620244
0.00046658718
0.00053200645
0.00046834856
0.00042177298
0.00062123485
0.00092030709
0.001176427
0.0012003535
0.001060392
0.003178214
0.00087799532
0.0014139715
0.0016466977
0.0016774445
0.001603898
0.0015033222
0.0014185162
0.0013634544
0.0013199536
0.001228181
0.0010103838
0.00069275065
0.00052225153
0.0003319154
0.00027743297
0.00035875475
0.00039696612
0.00038780494
0.00049419253
0.00061930916
0.00056958224
0.0005610629
0.00074207493
0.00096656795
0.0011461114
0.0011524013
0.00098165709
0.0013849813
0.0012965707
0.0017156375
0.0019236163
0.0018948762
0.0017719133
0.0016390733
0.0015445155
0.0014917972
0.0014630033
0.0013630183
0.0010261553
0.00054519322
0.00035619342
0.00059554878
0.00023299055
0.00026438943
0.00031804451
0.00040751439
0.00059958507
0.0007026978
0.00068384737
0.00071932855
0.00085440618
0.00099762917
0.0010935417
0.0010534909
0.00090105034
0.0011078272
0.0011839696
0.0020134303
0.0022066836
0.0021100044
0.0019306411
0.0017468524
0.0016096399
0.0015221733
0.0015127455
0.0014063001
0.00087857716
0.00040569829
0.00031870856
0.00018957214
0.00012686312
0.00025811576
0.00035314249
0.00051085219
0.00067861316
0.00075494626
0.00078037856
0.00083252831
0.00091568275
0.00099092477
0.0010188723
0.00093345217
0.00072320907
0.00092455526
0.0013956298
0.0022466377
0.0024819111
0.002328841
0.0020878254
0.001820191
0.0015938922
0.0014450524
0.0014783234
0.0013380982
0.00067894218
0.00043492472
0.00041567291
0.00029076556
0.00025745717
0.00031558374
0.00041872131
0.00056182074
0.00069564439
0.00077504938
0.00082410837
0.00086892274
0.00090809121
0.00093554111
0.00090117304
0.00075754341
0.00054241868
0.00094260366
0.0018457055
0.0024121382
0.0027458629
0.0025677393
0.002261271
0.0018738828
0.0015209021
0.0012958882
0.0013719386
0.0011833261
0.00063146029
0.00057151874
0.00057312859
0.00047037961
0.00033843733
0.00034999463
0.00045214123
0.00057960423
0.00069401427
0.00076563728
0.00080582221
0.00083306988
0.00084620621
0.00082738712
0.00074291014
0.00056738264
0.00037409296
0.0028849919
0.0025389348
0.0029570159
0.0028409046
0.0024698144
0.0019390237
0.0014313711
0.0011161616
0.0011963569
0.0010371847
0.00069743897
0.0007236109
0.00073978172
0.00070838382
0.00058272051
0.00046262806
0.0004758868
0.00056930777
0.0006536107
0.00070359585
0.00072682291
0.00073065176
0.00071412738
0.00066121408
0.00054973655
0.000399822
0.00024914495
0.0026310729
0.003067781
0.0031396662
0.0027230001
0.0020500179
0.0013625114
0.00094650898
0.00098991844
0.00092994187
0.00080681118
0.00085743501
0.00084741656
0.00083365642
0.00077874046
0.00068732472
0.00058921216
0.00054010091
0.00053720263
0.00054793978
0.00055320632
0.00054690478
0.00052076087
0.0004611771
0.00036201986
0.00025062685
0.00015688375
0.0022011341
0.0030590691
0.0034171552
0.00301537
0.0022291431
0.0013472081
0.00081975438
0.00080526142
0.00085696322
0.00089388155
0.00096060647
0.00092372394
0.00085762895
0.00075895106
0.00065598365
0.00056975727
0.00049204044
0.00042593208
0.00038913928
0.00037093872
0.00035869783
0.00033976792
0.0003116119
0.00029136712
0.00022269185
0.00042422411
0.00658441
0.002983739
0.0036373243
0.0033213407
0.0024798307
0.0014195435
0.0007542726
0.0006720355
0.00079262485
0.00094512816
0.0010436192
0.001017958
0.00093048611
0.00078175086
0.00060807464
0.00046652754
0.00039163285
0.00035118125
0.00033024142
0.00032653253
0.00035186102
0.00042610113
0.00060282781
0.00096621362
0.00065526144
0.0027358503
0.0038362249
0.0036108323
0.0027998825
0.0015960817
0.00075176754
0.0005817551
0.00073434128
0.00097060416
0.0011011821
0.0011182707
0.0010691784
0.00095743985
0.00080513095
0.00065628887
0.00055700691
0.00051567058
0.00052574248
0.00057842933
0.00068293543
0.00085972585
0.00117563
0.00092057799
0.0039474279
0.0039410625
0.0031926077
0.0019069068
0.00085992808
0.00053715679
0.00066903389
0.00096079783
0.0011445957
0.0012081844
0.001220343
0.0011856038
0.001120933
0.0010612195
0.0010323672
0.0010345053
0.0010750766
0.0011520307
0.0012793604
0.0015366352
0.0014711669
0.002494028
0.0042349439
0.0037850464
0.0024563336
0.001120526
0.00052498265
0.00057193753
0.00090063143
0.0011349092
0.0012674657
0.0013458637
0.0013917643
0.0014140183
0.0014342293
0.0014739854
0.0015347345
0.0015996966
0.0016771796
0.0018249324
0.0017026051
0.0027181743
0.0049740161
0.0036850518
0.0016685896
0.00057166598
0.0004339549
0.00074934779
0.0010210881
0.0012354716
0.0013904458
0.0015152224
0.0016219668
0.0017038522
0.0017476437
0.0017402559
0.0016921554
0.0016625736
0.0019057767
0.0029204616
0.0053245528
0.0026182862
0.00072441513
0.00029631759
0.00049275302
0.00074958162
0.0010256873
0.0012479771
0.0014128664
0.0015304099
0.0015917016
0.0016333382
0.0016708106
0.0016822446
0.0022687398
0.0014870557
0.00029868446
0.00021234146
0.00036866428
0.00055249443
0.00077999778
0.00099300975
0.0011532724
0.0012369999
0.0013301915
0.0017130319
0.0044596185
0.001125901
0.00072727393
0.00088810912
0.0011214069
0.0017265654
0.0075799017
0.0032812818
0.0020587408
0.0017362175
0.0014627687
0.0012030037
0.00096689803
0.00064597582
0.00073289483
0.0039781075
0.0029364048
0.0027254678
0.0025259329
0.0023219126
0.0020847013
0.001831717
0.0015451555
0.0011985953
0.00087266013
0.00060933248
0.00037572097
0.00037532189
0.00082486226
0.0077637648
0.0033821567
0.0032754731
0.0031568001
0.0029475966
0.0026847875
0.0024045024
0.002136387
0.0018991565
0.0016813517
0.0014371389
0.0011552637
0.00083911866
0.00054178837
0.00035054601
0.001097472
0.0011068447
0.0068209019
0.0041610898
0.0037249919
0.0033634841
0.0029902617
0.0026365753
0.0023290438
0.002082835
0.0018903201
0.0017328595
0.0015940095
0.0014496174
0.001264339
0.001009789
0.00070333391
0.00041406924
0.00065727797
0.0013056152
0.0023681295
0.0072056829
0.0041016144
0.0034442494
0.0029745441
0.0025441642
0.0021789115
0.0019075745
0.0017255164
0.0016131776
0.0015451283
0.0014916086
0.0014311422
0.0013555138
0.0012475467
0.0010723478
0.0008072081
0.00049590975
0.00045978642
0.00086882749
0.0016645782
0.0025725334
0.009932751
0.0037407794
0.0027507318
0.0021583435
0.0017030798
0.001363135
0.0011433625
0.0010344508
0.0010237752
0.0010845671
0.0011779385
0.0012546617
0.0012790081
0.0012506309
0.0011831729
0.001063034
0.00085026373
0.0005540373
0.00038351406
0.00062714669
0.0012575023
0.0019591188
0.0026954919
0.0037301216
0.001976707
0.0012764482
0.00091438009
0.00069874109
0.00060012964
0.00057059644
0.00058480163
0.00063822916
0.00075882816
0.00092777489
0.0010882126
0.0011767955
0.0011763169
0.0011177969
0.0010201608
0.0008489552
0.00058241851
0.00035707384
0.00047562972
0.0010271624
0.0016696973
0.0018333217
0.0040185229
0.0019034659
0.0011303548
0.00077685057
0.000628297
0.00055221351
0.00051828619
0.00052342833
0.0005451096
0.00060711002
0.00072038176
0.00085893297
0.00098486181
0.0010933976
0.0011541205
0.0011382893
0.0010633867
0.00096344348
0.00081836453
0.00058512117
0.00034615747
0.00037926607
0.00085373889
0.0014949547
0.0017469621
0.0021106373
0.00042529889
0.00052379593
0.00064790758
0.00073404176
0.00077457339
0.00078098388
0.00076995671
0.00076121766
0.00076239833
0.00080465253
0.00091595518
0.0010620844
0.0011590884
0.001173478
0.001119859
0.0010127298
0.00089674962
0.00076685594
0.00056707328
0.00033381179
0.00032691207
0.00071991613
0.0013459156
0.0017064305
0.0018075483
0.0028887481
0.0010093211
0.00062229634
0.00086902175
0.0010486161
0.0011233172
0.0011239687
0.0010823844
0.0010175271
0.00093640989
0.00084039829
0.00073291353
0.00066602145
0.00071867197
0.00088863968
0.0010225716
0.0010302168
0.00093388529
0.000814757
0.00069781272
0.00053176486
0.00032576404
0.00030289308
0.00062872377
0.001216972
0.0016383835
0.0016920818
0.0017630151
0.00061592241
0.00096051264
0.0012719624
0.0014046739
0.0014049318
0.0013414934
0.0012591103
0.0011785133
0.0011013627
0.0010084908
0.00087208968
0.00068537124
0.00050847159
0.00049455499
0.00064809465
0.00078448045
0.00078358083
0.00070552536
0.00061188335
0.00048800066
0.00032402927
0.00029940609
0.00058757613
0.0011183255
0.0015468209
0.0016021263
0.0015679941
0.0013571735
0.0013444961
0.0016135013
0.0016577181
0.0015765813
0.0014622506
0.0013638164
0.0012963693
0.0012470766
0.001170977
0.0010007725
0.00073433684
0.00049764644
0.00034534294
0.00035682285
0.00050074878
0.00058596984
0.00057278959
0.00051291449
0.00046157911
0.00033377831
0.00031630298
0.00059659164
0.0010593128
0.0014428868
0.0015147979
0.0014046422
0.0044499571
0.0012225365
0.0017409889
0.0019207774
0.0018641575
0.0017076365
0.0015513895
0.0014423646
0.0013844334
0.0013509938
0.001264104
0.0009916638
0.00059219192
0.00042572557
0.00024403991
0.00019342724
0.00029676352
0.0004171243
0.00043748304
0.00044522446
0.00046848106
0.00036369094
0.00037354882
0.0006582124
0.0010382808
0.0013460995
0.0014162342
0.0012701446
0.0019836813
0.0017217199
0.0020791066
0.0022067053
0.00206356
0.0018347895
0.0016226625
0.0014717107
0.0013825161
0.0013512962
0.0012332954
0.0008169021
0.00038210235
0.00023002026
0.00049985401
0.00025712111
0.0002062787
0.00030157688
0.00036016737
0.0004646415
0.00051521393
0.00044833745
0.00050540502
0.00075594107
0.0010392559
0.0012535366
0.0012778197
0.0011782762
0.0016069006
0.0016679318
0.0024256415
0.0025191197
0.0022884062
0.0019760786
0.0016709007
0.0014247412
0.0012655774
0.0012478273
0.0010983336
0.00060073338
0.00033407119
0.00021432853
0.00014268616
0.00010283705
0.00019017094
0.0002810305
0.0004097512
0.00055417499
0.00060142946
0.00058907931
0.00067173628
0.00085260717
0.0010407207
0.0011670576
0.0011367299
0.0009444831
0.0013452193
0.0020329625
0.0027286681
0.0028569968
0.0025603179
0.0021486972
0.001706444
0.0013160483
0.0010762085
0.0010895789
0.00092397526
0.00053832581
0.00043720058
0.00032175888
0.00019509834
0.00018876222
0.00025397293
0.00037046128
0.00052481887
0.00064916221
0.0006962809
0.00072576868
0.00080065951
0.00091148878
0.0010177955
0.0010552664
0.00094362794
0.00073382471
0.0012433171
0.002852587
0.002989075
0.0032219506
0.0029005037
0.002375101
0.0017607757
0.0011932932
0.00088275597
0.00091026937
0.00080774196
0.00062948568
0.00060907833
0.00049641653
0.00033927545
0.00028065333
0.00035552242
0.00048169016
0.0006138559
0.00070956597
0.00075973057
0.00080046682
0.00085311521
0.00090982632
0.00094414302
0.00090191685
0.00073092534
0.00053023917
0.0044481293
0.0032335013
0.0035703042
0.0033176879
0.002680739
0.0018731766
0.0011066187
0.00073198714
0.00074877415
0.00077568346
0.00075364398
0.00076541507
0.00068573897
0.00055722839
0.00043872964
0.00042937523
0.00052217673
0.00062721257
0.00070169853
0.00074722181
0.00077985343
0.00080680638
0.0008185737
0.00079338535
0.00069612521
0.00053489747
0.00035635176
0.0034709126
0.0038469426
0.0037949776
0.0030873633
0.002080542
0.0010985376
0.00065464805
0.00065107734
0.00078544157
0.00086194268
0.0008683501
0.0007791075
0.00067837226
0.00059070186
0.00053085363
0.0005147743
0.00054731943
0.00058831023
0.00061893119
0.00063728081
0.00064171591
0.00062537726
0.00056969031
0.00046191963
0.00032261181
0.00020580489
0.003183301
0.0039979572
0.004288713
0.0035977422
0.0024199624
0.0011999575
0.00063400772
0.00060145301
0.00080252311
0.00094506462
0.00094921398
0.00082258379
0.00065930373
0.00052631399
0.00045898802
0.00042530697
0.00040314219
0.00040433161
0.00041806112
0.00043667753
0.00044749772
0.00045159503
0.00045278381
0.00047971234
0.00040264396
0.00060701841
0.0092683757
0.0040760412
0.0047409507
0.0041763359
0.0029051719
0.0014345368
0.00066294362
0.00058432473
0.00080859752
0.0010071462
0.0010398148
0.00092404604
0.00073188785
0.00052617612
0.00038717121
0.0003367558
0.00032614406
0.00032899594
0.00034819933
0.00039076045
0.00046698291
0.00059395832
0.00088441569
0.0015797204
0.0014045079
0.004209907
0.0051868503
0.0047519924
0.003516674
0.0018182402
0.0007623036
0.00057908318
0.00081032913
0.0010603609
0.0011364692
0.001078876
0.00095043631
0.00078764019
0.0006382167
0.00054577273
0.00052242201
0.00055821416
0.00064287415
0.00077929039
0.00097094218
0.0012540301
0.001777081
0.001529391
0.0058715746
0.0054008906
0.0042379917
0.0023750547
0.00099347017
0.00060004474
0.0007888293
0.0010894858
0.0012343099
0.001249172
0.0012150306
0.0011649355
0.0011258474
0.0011237165
0.0011722925
0.001277688
0.0014371042
0.0016358603
0.0018789847
0.0022957111
0.0022457393
0.0041259474
0.0063060388
0.0052859228
0.0032220499
0.0014024357
0.00065861721
0.00071925228
0.0010627141
0.001292584
0.0014032978
0.0014660604
0.0015259407
0.0016035343
0.001715251
0.001866235
0.0020438385
0.0022310791
0.0024229365
0.0027054048
0.0025723282
0.0044063718
0.0077794665
0.0050870513
0.0021707041
0.00080250987
0.00058773927
0.00092759328
0.0012363099
0.0014628099
0.0016274392
0.0017828966
0.0019513431
0.0021212507
0.0022682068
0.002366099
0.0024014718
0.0024532916
0.0028637319
0.0047072796
0.0079715663
0.0035481331
0.0011296555
0.0004562203
0.00065832401
0.00097544407
0.0012974009
0.0015516879
0.0017547898
0.0019312019
0.002062381
0.0021851682
0.0023153796
0.0024194867
0.0035926306
0.0024790301
0.00057181755
0.00032542702
0.00054422353
0.00078386773
0.001065644
0.0013319922
0.0015493708
0.0017107496
0.0019243131
0.0025811583
0.0063555325
0.001556444
0.0010849732
0.0013373319
0.0016813112
0.0023785457
0.0098337195
0.0042790384
0.0027086197
0.0022149931
0.001873077
0.0015410577
0.0012559497
0.00084963525
0.00094749924
0.0052662808
0.0036481091
0.0033177137
0.0030236523
0.0027337934
0.0024340578
0.0021392018
0.0018219875
0.0014405456
0.0010757081
0.00077088926
0.0004572439
0.00058113125
0.0020923472
0.010473866
0.0043785062
0.0041719172
0.0039201539
0.0035635118
0.0031628795
0.0027714269
0.0024207461
0.002134509
0.001897347
0.0016472158
0.001357545
0.0010168382
0.00065549569
0.00055800646
0.0018724681
0.0019917071
0.0094890273
0.0054944137
0.0048450889
0.0042686888
0.0036758999
0.0031266311
0.0026681809
0.0023130872
0.0020524843
0.0018633514
0.0017236473
0.0015982811
0.0014342446
0.0011828607
0.00083505695
0.00057360257
0.0010076039
0.0020121937
0.0035728734
0.010260852
0.005626745
0.0046914981
0.0039514726
0.0032432711
0.0026311912
0.0021653702
0.0018534078
0.0016600432
0.0015536599
0.0014991751
0.0014661008
0.0014342441
0.001370872
0.0012218764
0.00093843835
0.00062596074
0.0006672603
0.001340762
0.0024973575
0.0037604906
0.014536054
0.0053035388
0.0039146657
0.0030294818
0.0023073088
0.0017292423
0.0013210877
0.0010707954
0.00095288441
0.00095055659
0.0010294209
0.0011390468
0.0012267572
0.001269416
0.0012641936
0.0011844865
0.00097047102
0.00066101425
0.00052733258
0.00097575317
0.0019326722
0.0028543791
0.0038413607
0.0052591806
0.0028461435
0.0018722112
0.0013213433
0.00095008721
0.00072182964
0.00060634027
0.00055814057
0.00054687063
0.00058259836
0.00070030859
0.00088696692
0.0010587231
0.0011531025
0.0011695131
0.0011176205
0.00095479855
0.00067143282
0.00046055962
0.00073378612
0.0015872438
0.0024498075
0.0025708636
0.0057808021
0.0033677233
0.0017569673
0.0011575849
0.00089485513
0.00073366503
0.00063477502
0.00058217718
0.00054698105
0.00053277146
0.0005493686
0.00061921329
0.00072655444
0.00086844908
0.0010133201
0.0010981868
0.001100838
0.0010435575
0.00090891016
0.00066061465
0.00042074399
0.00055732889
0.0012923964
0.0021656127
0.0024374517
0.0028898726
0.00072939183
0.00078203937
0.00086208471
0.00090723702
0.00091422905
0.00089261482
0.00084936104
0.00079210386
0.00072971184
0.00068254699
0.00068893215
0.0007816631
0.0009170698
0.0010351243
0.0010838041
0.0010504534
0.00096705145
0.00084218911
0.00063063837
0.00038895203
0.00043974401
0.001043567
0.0018935734
0.002329553
0.0023789417
0.0038598564
0.0013234071
0.00079310454
0.0010582973
0.0012363119
0.0012879126
0.0012590232
0.0011898961
0.0011027037
0.0010067791
0.00090061305
0.00077930556
0.00065802069
0.0005940944
0.00068698489
0.00087334296
0.00099523177
0.00097964647
0.00088256608
0.00076065706
0.00058297842
0.00035729585
0.00036692397
0.0008532536
0.001641416
0.0021700439
0.0021850454
0.0023498343
0.00082947631
0.0012036071
0.0015116539
0.0016094633
0.0015620222
0.0014554386
0.0013423193
0.0012445885
0.0011619062
0.0010745377
0.00094513198
0.00075481413
0.00054726388
0.0004327823
0.00054052555
0.00074419876
0.00082748112
0.00077195615
0.00066664476
0.00052090532
0.00033181015
0.00032837587
0.00072991368
0.0014358399
0.0019793603
0.0020281676
0.0020334657
0.0017920493
0.0016278117
0.0018596508
0.0018431055
0.0016964175
0.0015301613
0.0014007111
0.0013196487
0.0012676135
0.0011944944
0.0010182597
0.00073427624
0.00048792266
0.00033193438
0.00030483245
0.0004644753
0.00061734764
0.0006321806
0.00055824625
0.00045780473
0.0003122112
0.00032013677
0.00067549089
0.0012882624
0.0017856343
0.001875944
0.0017819152
0.0058557791
0.0016102256
0.0020553687
0.0021677609
0.0020243701
0.0017825273
0.0015593495
0.0014055325
0.0013189167
0.0012723452
0.0011770595
0.00088851982
0.00050337239
0.00036068223
0.00019842171
0.00015287082
0.00026325294
0.0004349041
0.00048406016
0.00044948943
0.00041403925
0.00030412629
0.00033981718
0.00068510982
0.0011992817
0.0016121893
0.0017187108
0.0015851716
0.002624443
0.002161936
0.0024264392
0.0024644024
0.0022115497
0.0018747417
0.0015692844
0.0013422619
0.0011994593
0.0011433346
0.001013565
0.00062907744
0.00029645963
0.00016701398
0.00040892778
0.00034032414
0.00017937448
0.00031129804
0.00036574566
0.00040651938
0.00040615108
0.00033198374
0.00041519534
0.00075180114
0.0011568144
0.0014656302
0.0015353428
0.001473324
0.0021450871
0.0021999871
0.0028192599
0.002813401
0.002451017
0.0020035104
0.0015678293
0.0012077763
0.00098602927
0.0009446411
0.0008057762