/*--------------------------------*- C++ -*----------------------------------*\
| =========                 |                                                 |
| \\      /  F ield         | OpenFOAM: The Open Source CFD Toolbox           |
|  \\    /   O peration     | Version:  2406                                  |
|   \\  /    A nd           | Website:  www.openfoam.com                      |
|    \\/     M anipulation  |                                                 |
\*---------------------------------------------------------------------------*/
FoamFile
{
    version     2.0;
    format      ascii;
    arch        "LSB;label=32;scalar=64";
    class       volScalarField;
    location    "500";
    object      k;
}
// * * * * * * * * * * * * * * * * * * * * * * * * * * * * * * * * * * * * * //

dimensions      [0 2 -2 0 0 0 0];

internalField   nonuniform List<scalar> 
150387
(
0.00043936173
0.00044656856
0.00046887035
0.00042873305
0.00035136741
0.0002631038
0.00020161661
0.00018691501
0.00038023123
0.00059916059
0.00072805691
0.00080500106
0.00082523336
0.00080688701
0.00074369075
0.00063362551
0.00048486605
0.00032774979
0.00019546151
0.0001313786
0.00012145214
0.00053471571
0.00077512861
0.000952488
0.0010529691
0.0010918256
0.0010776928
0.0010223796
0.00094106887
0.00083710655
0.00070269519
0.00053562687
0.0003569474
0.00020382399
0.00012651571
0.00010659052
0.00013753904
0.00036715448
0.00063770592
0.00081164373
0.0009127407
0.00098153021
0.0010560539
0.0011267117
0.0011487168
0.0011040255
0.0010138208
0.00090944677
0.00079842284
0.00066494536
0.00050131917
0.00032329127
0.00018137462
0.00012580683
0.00017543427
0.00022932509
0.00042560353
0.0006185531
0.00078041594
0.00088764621
0.00095122088
0.00099523667
0.0010254788
0.0010366222
0.0010379452
0.0010268214
0.00098116003
0.00089981937
0.00080467995
0.00070081623
0.00057077651
0.00040747343
0.00023904488
0.00015122803
0.00018649909
0.00029413065
0.00029012271
0.00066294743
0.0007547773
0.0007930783
0.00082256037
0.00085910189
0.00089798652
0.00093472662
0.00095655674
0.00095127431
0.00092126082
0.00088048448
0.00082521049
0.00075353721
0.00067503138
0.00057796946
0.00044277568
0.000273885
0.00017324775
0.0002004521
0.00033498149
0.00035790789
0.00030760975
0.00053939784
0.00058042588
0.00059472842
0.00061696098
0.00065352348
0.00069996532
0.00074618488
0.00078749645
0.00082250251
0.00084267596
0.00082559946
0.00077303617
0.00071567885
0.00066252391
0.00060362574
0.00053982174
0.00044020528
0.00028244008
0.00019422521
0.00022420576
0.00035239566
0.000401832
0.00038873508
0.00026215258
0.00018604295
0.0003084864
0.00039438294
0.00048541871
0.00055974828
0.0006046706
0.00063433839
0.00066036925
0.00068892903
0.0007197522
0.00073945109
0.00073353266
0.00069584063
0.00062629404
0.00055949902
0.0005171879
0.00047730036
0.00040970848
0.00026772887
0.00022330038
0.00025867331
0.00037571206
0.00044398157
0.00048412506
0.00039506582
0.0001505405
0.00021740437
0.00026544325
0.00031286163
0.00037192123
0.00045147102
0.00053627666
0.00059995735
0.00063577405
0.00064719002
0.00065610992
0.00064757817
0.00061405032
0.0005501128
0.00047114461
0.00042176272
0.00039991404
0.00036241571
0.00024302998
0.00026445452
0.0002990946
0.00040781795
0.0004897378
0.00057820558
0.00052763214
0.00032831219
0.00016631186
0.00024735525
0.00033652983
0.00038831968
0.00039759675
0.00037397709
0.00035178121
0.00034098999
0.00035731238
0.00043878102
0.00052998354
0.00055482414
0.00053250216
0.00048294787
0.00041080528
0.00034907081
0.00032752316
0.00030927172
0.00023747116
0.00030793271
0.00034302669
0.00045194313
0.00053973404
0.00067418732
0.00062196601
0.0004063149
0.00015669308
0.00025786936
0.00042483097
0.00055932666
0.00061894922
0.00061811665
0.00057709839
0.00050548833
0.00041806441
0.00033863706
0.00027236598
0.00025635504
0.00031265907
0.00042686446
0.00042135015
0.00036105845
0.0002997925
0.00026644728
0.00025005213
0.00026338315
0.00033876238
0.00040517236
0.00050821736
0.00060760103
0.00074975188
0.00068779445
0.00048337684
0.00022313821
0.00040512464
0.00062125298
0.00074835093
0.00077798513
0.00074266134
0.00065765462
0.00056179414
0.00045812005
0.00037999183
0.00033438239
0.00030290124
0.00026828871
0.00025317325
0.00031768913
0.00031811856
0.00026872158
0.00023266013
0.00022816328
0.00031893341
0.00038362929
0.00047473421
0.00057140171
0.00069265655
0.0007864749
0.00071626491
0.00053382722
0.0002938079
0.00030107234
0.00057311634
0.00080411041
0.00090239022
0.00090544107
0.00084289539
0.00073189535
0.00062512015
0.00053109755
0.00046220195
0.00040829019
0.00035067085
0.00030401644
0.00023325518
0.00020775646
0.00026508273
0.00024761331
0.00021090371
0.00027202679
0.00037052626
0.00044440227
0.00052967439
0.00063411737
0.00074803242
0.00078251641
0.00071431992
0.00054136853
0.00025720558
0.0003911647
0.0007247087
0.00095122169
0.0010371375
0.0010229641
0.00093097204
0.0008047417
0.00071486954
0.00063220327
0.00055063069
0.00047380428
0.00040071403
0.00024852606
0.00018875659
0.00013325203
0.00020420677
0.00023587274
0.00023441265
0.00033916891
0.00040228702
0.00047157195
0.00056323792
0.00067046606
0.00074554727
0.00075045179
0.00068145331
0.000503373
0.00022268531
0.00047429316
0.00082883227
0.0010700081
0.0011691425
0.0011230858
0.0010061377
0.00089231896
0.00080229568
0.00071218209
0.00061254899
0.00051280013
0.00032150391
0.00024241969
0.00014003686
0.00011556089
0.00019713806
0.00023937367
0.00029351893
0.0003384892
0.00039671873
0.00047599085
0.000576703
0.00066084067
0.00070406509
0.00069510747
0.00060989537
0.00041676626
0.00019431101
0.00047855218
0.00088563697
0.0011707011
0.001282926
0.0011892939
0.0010785872
0.0009787981
0.00086666721
0.00075914413
0.00064376672
0.0005082301
0.00024018869
0.00026971982
0.00022596308
0.00020157796
0.00023077923
0.00025118979
0.00027929916
0.00031364778
0.00038370276
0.00047546969
0.00055591821
0.00061710555
0.00063800226
0.00060489005
0.00049075484
0.00031237779
0.0001707155
0.00032903022
0.00089460871
0.0012430599
0.0013420212
0.0012284291
0.0011463368
0.0010278878
0.00089874902
0.00077708753
0.00065054827
0.00043890401
0.00023605401
0.00029614857
0.00030570676
0.0002301083
0.00021038647
0.00022066511
0.00024665263
0.00030612616
0.00038080158
0.00045477885
0.00051268573
0.00054460829
0.0005374827
0.00047630069
0.00035404006
0.00021276715
0.00015858675
0.00040352792
0.00085584558
0.0012621914
0.0013257025
0.0012625968
0.0011956381
0.0010453984
0.00090901601
0.00076901353
0.00065515498
0.00035958143
0.00027030018
0.00031739831
0.00035306108
0.00035904681
0.0002811656
0.00022610936
0.00024399253
0.00030327427
0.00035853465
0.00040428821
0.0004309045
0.00043303748
0.00040331756
0.00033249611
0.00022746388
0.0001413333
0.00073105328
0.0012046439
0.0012538922
0.0012821028
0.0012141597
0.0010551373
0.00090864926
0.00075679673
0.00065616317
0.00033575488
0.0003385882
0.00035922103
0.00040420942
0.00041698932
0.00039403267
0.00035306611
0.00029069897
0.00025508298
0.00025580358
0.0002705629
0.0002827091
0.00027962971
0.00025516714
0.00020613002
0.00014546376
0.00011656102
0.0005513722
0.0010497219
0.0011674473
0.0012626601
0.001207474
0.0010611169
0.0009001454
0.0007452173
0.00064240977
0.00034455858
0.00042229369
0.00043658949
0.0004645551
0.00048571457
0.00046330975
0.00041472935
0.00038533278
0.00036992554
0.00033507339
0.00029397771
0.00026725078
0.00024240463
0.00021165982
0.00017176465
0.00012149973
9.4711991e-05
0.00076752077
0.0010599743
0.0012017331
0.0011824628
0.0010494807
0.00088754972
0.00073347144
0.00062203259
0.00036098199
0.00050253556
0.00053660848
0.00055211348
0.00056639409
0.00055921115
0.00050809633
0.00043974785
0.0003896277
0.0003610879
0.00033400902
0.00030417927
0.00027069633
0.00023257506
0.00018440629
0.0001271831
0.00039278591
0.00087632517
0.0010793454
0.0011467278
0.0010168071
0.00087271599
0.00071817734
0.00058444986
0.00036803616
0.00056272503
0.0006298853
0.00066377625
0.00067060807
0.00066328313
0.00063446344
0.00057577224
0.00051223649
0.00046293062
0.00042724031
0.00039911608
0.00037737371
0.00036828421
0.00032289742
0.0002400835
0.00055627606
0.00086517964
0.0010765476
0.00096373447
0.00085132666
0.00069774528
0.00053454049
0.00035601369
0.00059146443
0.00069356912
0.0007595149
0.00079138893
0.00078029704
0.00074779487
0.00070800664
0.00066061879
0.00061228821
0.00056792172
0.00052534796
0.00047643453
0.00037855071
0.0002432623
0.00056670464
0.00092629937
0.00089582594
0.00081957035
0.00067336942
0.00046561168
0.00032906264
0.00057869202
0.00071425565
0.0008056368
0.0008755804
0.0009039083
0.00087120637
0.00080394443
0.00074361252
0.00068508711
0.00061157978
0.00053120595
0.00043107269
0.00026027047
0.00057165408
0.00079446913
0.00077785666
0.00064910099
0.00036784075
0.00027202643
0.00050682572
0.00067146809
0.00078533941
0.00086749855
0.0009336736
0.00097094991
0.00095581163
0.00087601734
0.00074365265
0.00059125444
0.00042474079
0.00028446117
0.00044364429
0.00065158992
0.00055502869
0.00025654091
0.00019327787
0.00035967654
0.0005350029
0.00067520284
0.00076414571
0.00080974065
0.00082126255
0.00079043551
0.00070340178
0.00056412068
0.00038964867
0.00030993651
0.00032758584
0.00014703737
0.0001347341
0.00020600643
0.00031824078
0.00043848131
0.00052621318
0.00056574846
0.00054210614
0.00047169051
0.00036029
0.00033824936
0.00012417573
0.00015426846
0.0001766581
0.00020109117
0.00024011668
0.00028939744
0.00074124085
0.00073770248
0.00074463042
0.00072570638
0.00064583186
0.00053838093
0.00041747045
0.00030341733
0.00025932551
0.00081190871
0.0011349613
0.0012682893
0.0013436973
0.0013713786
0.0013316571
0.0012338576
0.0010792802
0.00086195117
0.00062501202
0.00041158508
0.00027101264
0.00015128497
0.0001451879
0.00077550019
0.0011052131
0.0013631702
0.0015430163
0.0016479939
0.001679694
0.00165039
0.0015756899
0.0014700261
0.0013368317
0.0011627766
0.00094245831
0.000685573
0.00045616059
0.00026472022
0.00021411816
0.00024587794
0.00083652166
0.0011471571
0.0013545785
0.0015002972
0.0015767705
0.0016025757
0.0016040512
0.0015924149
0.0015613895
0.0015010902
0.0014099994
0.0012863157
0.0011178595
0.00089019619
0.00063464282
0.00039159519
0.00025070734
0.00032128528
0.00041281496
0.00087056492
0.0010509427
0.0011909738
0.0012924343
0.0013447383
0.0013684874
0.0013824579
0.0013980455
0.0014169807
0.0014293582
0.0014182321
0.0013724945
0.0012925328
0.0011744605
0.00099751303
0.00075837046
0.00049860505
0.00029667343
0.00030198919
0.0004404847
0.00048622663
0.00087695195
0.00085793714
0.00087175175
0.00088887616
0.00089126747
0.00089559724
0.00092130589
0.00097752109
0.0010638255
0.0011602997
0.0012403298
0.0012828175
0.0012791195
0.001234158
0.0011546437
0.0010257489
0.00082181183
0.00056580368
0.00033868727
0.00029394759
0.00043525346
0.00055114607
0.00051504837
0.00063347326
0.00055285142
0.00053007044
0.00052100162
0.00052788881
0.00055806582
0.0006100724
0.00068741152
0.00080106368
0.00093364829
0.0010569782
0.0011388071
0.0011639512
0.0011421892
0.0010882588
0.00099790214
0.00083484053
0.00059558731
0.00036617829
0.000288499
0.0004398236
0.00059955072
0.00063908646
0.00058237578
0.00036099984
0.00036673444
0.00040554795
0.00044065856
0.00046853385
0.00050325077
0.00055265604
0.00062548784
0.00071079248
0.00079770537
0.00087801327
0.00095508267
0.0010176519
0.001043945
0.0010281344
0.00098868101
0.00092876261
0.00080654373
0.00059257921
0.00037820245
0.00028470649
0.00044418504
0.00065026759
0.00074725094
0.00059315512
0.00025396216
0.00041390644
0.00056263107
0.00065553396
0.00069925654
0.00071133024
0.00070468451
0.00069344904
0.00068985667
0.00071194165
0.00076865473
0.00083338318
0.00088365862
0.0009045543
0.00088931096
0.00085833059
0.00082507854
0.00074162333
0.0005609012
0.00038314261
0.00029366144
0.00045314998
0.00069523942
0.00084866575
0.0007492535
0.00059266997
0.00022462479
0.00041411602
0.00068163254
0.00087629246
0.00097986257
0.001008649
0.00097790602
0.00089875387
0.00077895468
0.00063616008
0.00051383791
0.00046253055
0.00051238134
0.00060890143
0.00068240562
0.00070305238
0.00069381695
0.0006885884
0.00064079784
0.00050966186
0.00039142907
0.000312503
0.00047740984
0.0007378792
0.00093653157
0.00083887254
0.00063611719
0.00025957501
0.0006478878
0.00097720159
0.0011685157
0.0012389646
0.0012273359
0.0011604058
0.0010546238
0.0009169552
0.00074543949
0.00056263152
0.00039903349
0.0002958886
0.00031458402
0.0004119254
0.00048482306
0.00051241659
0.00053278411
0.00051512499
0.00045957588
0.00040658139
0.00035169424
0.00052951343
0.00079429963
0.0010036813
0.00090801425
0.00067858097
0.00033711159
0.00091678758
0.0012419892
0.0013911698
0.001410783
0.0013532688
0.0012523447
0.0011289372
0.00098757978
0.00081590968
0.00061254187
0.00041784645
0.00027969007
0.0002052132
0.00022901429
0.00030562377
0.00035642755
0.00039191033
0.00040175445
0.00043775127
0.00043552817
0.00043273864
0.00062006655
0.00087089887
0.0010474798
0.00095828034
0.00071724011
0.00051088648
0.00048940665
0.0011624251
0.0014606294
0.0015646818
0.0015391254
0.0014461778
0.0013271098
0.0012010436
0.0010592979
0.00086933657
0.00061068122
0.00036345705
0.00024635884
0.00016345774
0.00013917635
0.00019661738
0.00025073483
0.00028635115
0.00034832459
0.00046251179
0.00050308638
0.00056253222
0.0007491963
0.00095339153
0.0010687925
0.00097459497
0.00072909524
0.00048011374
0.00082217234
0.0013472151
0.0016411808
0.0017084527
0.0016429886
0.0015185163
0.0013814088
0.0012423101
0.0010857803
0.00086311718
0.00053562541
0.00025950697
0.00016741443
0.00014284617
9.9312823e-05
0.00015041932
0.00019308866
0.00025245729
0.00038791553
0.00053013117
0.00061021542
0.00071680623
0.00087849261
0.0010161135
0.0010627106
0.00094003647
0.00063319187
0.00043335241
0.0006926195
0.001486892
0.0017977415
0.0018291077
0.0017265005
0.0015665005
0.0013968188
0.0012216108
0.0010532541
0.0008086641
0.00042531991
0.00021673834
0.00016369602
0.00010185514
8.0499919e-05
0.00014501096
0.0002011729
0.00031172601
0.00047438017
0.00062304975
0.00073632051
0.00085408686
0.0009674859
0.0010380831
0.0010218961
0.00086263453
0.00059362783
0.00038049588
0.00077524927
0.001555562
0.0019234428
0.0019253034
0.0017948722
0.0015887853
0.0013625483
0.0011422187
0.00099031737
0.00074234004
0.00037184757
0.0002744157
0.00022495872
0.00015296053
0.0001478965
0.00018555547
0.00026436231
0.00040069871
0.00057215054
0.0007249951
0.00084407935
0.00093298239
0.00099449189
0.0010065636
0.00093153466
0.00072269795
0.00045924952
0.0003224552
0.00076793162
0.0015420577
0.0020008647
0.0019977287
0.0018565829
0.0015916447
0.0012922151
0.00102777
0.00091839194
0.0006972786
0.00043357129
0.00040400114
0.00034361101
0.00025374006
0.00020047914
0.00024511676
0.00034903486
0.00050224545
0.00066829857
0.00079724145
0.0008849313
0.00093518101
0.00095018343
0.00091067723
0.00078287235
0.00054070382
0.00029594023
0.00077248803
0.0014641877
0.0020008507
0.0020456883
0.0019156382
0.001588166
0.0012097174
0.00090312989
0.00084124778
0.00069803173
0.00057383236
0.00057923018
0.00051491083
0.00043197977
0.00034395709
0.00032517053
0.00041297623
0.00055380694
0.00068908662
0.00077971421
0.00082946347
0.00084255106
0.00081759364
0.00073820118
0.00058210203
0.00036104745
0.00020271269
0.0013020237
0.0018939301
0.0020525082
0.0019631475
0.0015914198
0.0011343147
0.00079440394
0.00076134522
0.00072574551
0.00073477189
0.00076497385
0.00068561131
0.00060587742
0.00053015485
0.00048001651
0.00047533425
0.00051601743
0.00057679141
0.00062701079
0.00065346394
0.00065140796
0.00061507021
0.00053222275
0.00039822712
0.00024113615
0.00013753668
0.00091522735
0.0016708167
0.0019779065
0.0019749745
0.0016027229
0.0010812458
0.00071567634
0.00068125411
0.00075013186
0.00086628057
0.00092207757
0.00083774359
0.00072721392
0.00061892928
0.00053891939
0.00049921355
0.00048064477
0.00046747712
0.00046286809
0.00046152552
0.00045022805
0.00041400035
0.00034553274
0.00025059596
0.00015871127
0.00013403974
0.00084483522
0.0013168917
0.0017838738
0.0019136147
0.0016036574
0.0010601035
0.00065445894
0.00060612999
0.00075963428
0.0009529152
0.0010475432
0.00099013971
0.00087026676
0.0007200762
0.00057116651
0.000458988
0.00039720766
0.00036614637
0.00034948066
0.00034013567
0.00033453264
0.0003220631
0.00030827653
0.00031869274
0.00021549313
0.00086400433
0.0014655014
0.0017387989
0.0015621813
0.0010563879
0.00062587994
0.00053987344
0.00074580888
0.00099489644
0.0011331528
0.0011243857
0.0010466078
0.000919398
0.0007692999
0.00063054858
0.00053340645
0.00048068702
0.00046028369
0.00045283502
0.00044906037
0.00044614313
0.00045780511
0.00041380068
0.00093949321
0.0014445676
0.0014431879
0.0010425351
0.00062858421
0.00048064344
0.00069910104
0.00098660587
0.0011699902
0.0012208547
0.0012042486
0.001139758
0.0010468792
0.00095609525
0.000885235
0.00082829594
0.00078033605
0.00072964148
0.00066946109
0.00061358484
0.00052487168
0.00054501921
0.00099136268
0.0012583404
0.00099228719
0.00065517286
0.00042811844
0.00060334307
0.00091048627
0.0011352382
0.0012499168
0.0012979616
0.0013020144
0.0012687808
0.0012142447
0.001154281
0.0010889405
0.0010019512
0.00088658301
0.00075652229
0.00062103183
0.00060467351
0.00099328551
0.00094334809
0.00069829184
0.00037948729
0.00044782507
0.00073867806
0.0009883525
0.0011662459
0.0012735805
0.0013391678
0.0013702435
0.0013591381
0.0012983052
0.0011830346
0.0010230863
0.00082411595
0.00065268222
0.00060790513
0.00095246983
0.00084251976
0.00035959742
0.00026008502
0.0004595775
0.00069073416
0.00091256408
0.0010609422
0.0011410965
0.0011640701
0.0011235506
0.0010450859
0.00092454214
0.00080165439
0.00067200736
0.00046696097
0.00013018439
0.00018218245
0.00029032851
0.00047362292
0.00064223801
0.00076171969
0.0008093044
0.00078168028
0.00073659651
0.00066590403
0.00063506928
0.00025836431
0.00031449595
0.00037489505
0.00043276752
0.00047902778
0.00093867012
0.00092001379
0.00092270746
0.00090323021
0.00080232401
0.00067076131
0.00051930565
0.00036229799
0.0002987883
0.00106229
0.0014677772
0.0016208602
0.0016902033
0.0017036013
0.0016356502
0.0015086739
0.0013215038
0.0010580821
0.00076898103
0.00050531317
0.00032274975
0.0001523528
0.00022020536
0.0010076029
0.0014711399
0.001820523
0.0020124098
0.0020836854
0.0020668975
0.0019908523
0.0018785862
0.0017483518
0.001598234
0.0014041081
0.0011517716
0.00084761675
0.00056250741
0.00031836295
0.00034585672
0.00045541067
0.0010974195
0.001589044
0.0018827751
0.0020369161
0.0020659716
0.0020216556
0.0019469163
0.0018698721
0.0017971419
0.0017218344
0.0016337475
0.001517026
0.0013439363
0.0010897506
0.00077976129
0.00047439037
0.00034696385
0.00048415302
0.00059965195
0.0011379829
0.0014616357
0.0016799723
0.0017769289
0.0017592017
0.0016885918
0.0016180515
0.0015708301
0.0015527794
0.001555413
0.0015583781
0.0015414102
0.0014920445
0.0013921312
0.0012094586
0.00092984764
0.0006069989
0.00038808461
0.00045314073
0.00064697088
0.00067216611
0.0011849211
0.0011808867
0.0012447189
0.0012581239
0.0011966895
0.0011019784
0.0010253531
0.00099705504
0.0010313075
0.001118929
0.0012343146
0.0013391796
0.0014010992
0.0014090747
0.001361995
0.0012398781
0.0010095198
0.00069626002
0.00043220195
0.00044052555
0.0006693271
0.00081036826
0.00070581259
0.00086468155
0.00079233997
0.0007668407
0.00071920854
0.00065834333
0.00062044377
0.00062111878
0.00064206688
0.0006935245
0.00078904914
0.00095109496
0.0011258368
0.0012527952
0.0013071214
0.0012941105
0.0012136079
0.0010318637
0.00074512093
0.0004635429
0.00042373534
0.00068359717
0.00091362057
0.00089490644
0.00078772727
0.00063422493
0.00054055696
0.00056626967
0.00059114135
0.00060838211
0.0006155206
0.00061833035
0.00062759526
0.00064407992
0.00068463479
0.00075513553
0.00085628813
0.00099167521
0.0011205273
0.001194633
0.0012014511
0.0011484103
0.0010090805
0.00075849878
0.00047853154
0.00040142932
0.0006726023
0.00098758133
0.0010691744
0.00082343895
0.00031457443
0.00051607033
0.00069902458
0.00082828396
0.00090071882
0.0009247565
0.00090855661
0.00086006712
0.00079114094
0.00072743563
0.00070978299
0.00076132037
0.00086510556
0.0009838472
0.0010638244
0.0010827081
0.00105062
0.00094863182
0.00073881124
0.00047801922
0.00037664883
0.00064753206
0.0010214685
0.0011959376
0.001006525
0.00077084882
0.00024922407
0.00050185758
0.00083801108
0.0010808564
0.001209537
0.0012500902
0.0012283292
0.0011596298
0.0010499402
0.00090181716
0.00073069056
0.00057396811
0.0005043236
0.0005757871
0.00072970892
0.00086249335
0.00092106476
0.00091955484
0.00085359616
0.00068811362
0.00046378036
0.00035775773
0.00062452684
0.0010299528
0.00127311
0.0011154528
0.00081287518
0.00030647086
0.00080465037
0.0012051469
0.0014208721
0.0014918307
0.0014745108
0.0014071216
0.0013091068
0.0011847588
0.0010242098
0.00082002171
0.00059396814
0.00040088998
0.00031782416
0.00041222409
0.00058385747
0.00070582595
0.00075384432
0.00072604547
0.00061377952
0.00044432918
0.00036230258
0.00062438494
0.001033958
0.0013084178
0.0011847762
0.00086067313
0.00041084556
0.0011375443
0.001514019
0.0016628074
0.0016634889
0.0015910656
0.0014900682
0.0013769711
0.001245266
0.0010687507
0.00082140029
0.00054616877
0.00034331016
0.00022902069
0.0002204251
0.00034239898
0.00048666164
0.0005743933
0.00058339076
0.00053895334
0.00043023008
0.00039183982
0.00066353129
0.0010522255
0.0013120982
0.0012246145
0.00090964823
0.00065206934
0.00062944468
0.0014369335
0.0017612526
0.0018392005
0.0017750419
0.0016547399
0.0015255556
0.0013943142
0.001243402
0.0010270288
0.00070096043
0.00037758542
0.00024943751
0.00014819408
0.000122544
0.00019755357
0.00032496097
0.00041746016
0.00045917935
0.00048626532
0.00043767233
0.00046487511
0.00075336069
0.0010896139
0.0012970376
0.0012199804
0.00091933518
0.00060666328
0.0010302235
0.0016590896
0.0019637515
0.0019844264
0.0018608684
0.001686765
0.0015106189
0.0013344795
0.0011534472
0.00089787702
0.00051287121
0.00023210334
0.00013952328
0.00012733874
0.00011051246
0.0001435033
0.00023120338
0.00031195368
0.00040810615
0.00049065898
0.00050300668
0.00061595809
0.0008807922
0.0011353939
0.0012678742
0.0011608493
0.00078944239
0.0005488395
0.00087786786
0.0018330861
0.002144503
0.0021194427
0.0019377789
0.0016912143
0.0014371116
0.0011954613
0.0010125217
0.00075705965
0.00039567495
0.00023110797
0.00014044784
8.7284341e-05
7.6220811e-05
0.00013396089
0.00020466768
0.00031735957
0.000466777
0.00058294055
0.00066247571
0.00080840725
0.0010065975
0.0011674583
0.0012169992
0.0010638237
0.00075264335
0.00048393907
0.00098482784
0.0019299947
0.0023045913
0.0022547232
0.0020189274
0.0016793926
0.0013192848
0.0010186132
0.00088600626
0.00068409728
0.00044034472
0.00033856172
0.0002180181
0.00013255073
0.00013622821
0.00018385525
0.00028311061
0.00044039713
0.00061138207
0.00074222849
0.000849552
0.00096936679
0.0010884182
0.0011595617
0.0011232498
0.00089890034
0.00059472636
0.00041134281
0.00096422664
0.001932092
0.0024271473
0.0023929641
0.0021163826
0.0016733238
0.0011939897
0.00086292695
0.0007982952
0.00070438017
0.00059586754
0.00051848784
0.00036240047
0.00023882515
0.00022426211
0.00030557371
0.00044372166
0.00061452939
0.0007718608
0.00088749746
0.00097603555
0.0010465669
0.0010913665
0.0010822488
0.00096505741
0.00068335792
0.00037923991
0.00098253011
0.001861843
0.0024784705
0.0025240286
0.0022355749
0.0016963623
0.0010985295
0.00076784154
0.00074278137
0.00078232757
0.00078073835
0.00071932446
0.00056120854
0.00042160265
0.00036654948
0.00042904264
0.00056837508
0.00072040572
0.00084357546
0.00092537345
0.0009751247
0.00099642269
0.00098234094
0.00090839395
0.00073717241
0.00046386074
0.00025227176
0.0016814223
0.002414975
0.0026136977
0.0023684509
0.0017631859
0.0010609378
0.00071383872
0.00071515679
0.00086371083
0.00094382425
0.00089418517
0.00073023207
0.00058636257
0.00051762862
0.00052687268
0.00058953982
0.00067697248
0.00075205319
0.00079910968
0.00081890026
0.00081148795
0.00076941155
0.00067554359
0.00051735693
0.0003108486
0.00016438354
0.0012163825
0.0021916967
0.0026014827
0.0024832459
0.0018733807
0.0010914049
0.00069184175
0.00069898267
0.00092129054
0.0010665687
0.0010405429
0.00086586298
0.00066913874
0.00053937044
0.00050250565
0.00051416167
0.00053377022
0.00055983755
0.00058112298
0.00059139984
0.00058431754
0.00054799616
0.00047171218
0.00035752317
0.00021579909
0.00017551269
0.0011263305
0.0017409986
0.0024117529
0.0025139018
0.0019941776
0.001179095
0.00068727098
0.00068395929
0.00095046698
0.0011502539
0.0011732098
0.0010308326
0.00081491815
0.00060356102
0.00046474655
0.0004151958
0.00040332398
0.00041282332
0.00043978215
0.00046233154
0.00047097434
0.00046050282
0.0004385092
0.00045876081
0.00037352145
0.0011298275
0.0020018242
0.0023626924
0.0020554406
0.0012918137
0.00071909544
0.00066791115
0.00094746099
0.0011959258
0.0012817557
0.0012114601
0.0010618287
0.00087946659
0.00071783963
0.00061585353
0.00057874203
0.00058729168
0.0006152378
0.00064449477
0.00065684932
0.00064553135
0.00063919712
0.00058270813
0.0012773017
0.0019802318
0.001967163
0.0013670847
0.00077782548
0.00063335812
0.00090264603
0.0011957303
0.0013516379
0.0013682363
0.0013142503
0.0012313528
0.001151324
0.0010989513
0.0010794654
0.0010825832
0.0010882261
0.0010655111
0.00099032673
0.00088131128
0.00073316997
0.00076581052
0.0013287084
0.0017148353
0.001335423
0.00084355919
0.00057603294
0.00079457308
0.0011222972
0.0013508633
0.0014591484
0.0014986706
0.001510176
0.0015120003
0.0015159801
0.0015202028
0.0015047043
0.0014405047
0.0013029532
0.001099341
0.00089243986
0.00082343669
0.0013411679
0.0012381344
0.000904997
0.00051731686
0.00060321866
0.00093100507
0.0012169003
0.0014173333
0.0015397058
0.001625556
0.0016880597
0.0017164725
0.001693776
0.0016006972
0.0014235678
0.0011492992
0.00093590293
0.0008385336
0.001245296
0.0010639707
0.00050500901
0.00036007468
0.00059644581
0.00088087537
0.0011475798
0.0013261596
0.001432681
0.00148001
0.0014508773
0.0013757148
0.0012347485
0.0011246523
0.00092530274
0.00067574717
0.0001906097
0.00023840123
0.00038878772
0.00062840811
0.00083207839
0.00097833331
0.0010417973
0.0010021589
0.0009573348
0.00087350774
0.00084337073
0.00032750983
0.00040877902
0.00048693068
0.00056147364
0.00062922845
0.0011139596
0.0010919106
0.001105677
0.0010846857
0.00096424114
0.00080990731
0.00062932396
0.00043294418
0.00035357663
0.0012829008
0.0017885431
0.001964633
0.0020322985
0.0020282191
0.0019356556
0.0017806075
0.0015611855
0.0012569461
0.00092175318
0.00060968587
0.00038915289
0.00020010945
0.00040833554
0.0012287143
0.0018555
0.0022898931
0.0024889265
0.0025226073
0.0024506534
0.0023206465
0.0021641248
0.0020049751
0.0018372583
0.0016264419
0.0013495664
0.0010057076
0.00067521062
0.00041691201
0.00050771187
0.00067558617
0.0013652661
0.0020878292
0.0024649937
0.0026084375
0.0025680473
0.0024337325
0.0022738455
0.0021269732
0.0020074805
0.0019107052
0.0018219175
0.0017134443
0.0015422793
0.001270427
0.00092093931
0.0005921527
0.00048545057
0.0006866528
0.00080933038
0.0014384395
0.0019796448
0.0022879746
0.0023643934
0.0022535169
0.0020630814
0.0018776191
0.0017441849
0.001668551
0.0016442308
0.0016499281
0.0016577063
0.0016415851
0.0015670951
0.0013875147
0.0010801588
0.00073218441
0.0005276597
0.00067052708
0.00092927706
0.00089718926
0.0015268559
0.0016156326
0.0017569721
0.0017589893
0.0016203114
0.0014159333
0.0012220563
0.0010882547
0.0010359813
0.0010737717
0.0011832622
0.0013240509
0.001445522
0.0015139026
0.0015108829
0.0014059761
0.0011582205
0.00081685149
0.00056550286
0.00066261706
0.0010054071
0.0011494069
0.0009245112
0.0011548988
0.0011267599
0.0011058905
0.0010150811
0.00089028904
0.00077169508
0.00069274044
0.00066783866
0.00067697658
0.00071820185
0.00082402631
0.0010264238
0.0012366669
0.0013774126
0.0014237136
0.0013678464
0.0011757111
0.0008582176
0.00058073593
0.00062829951
0.0010333989
0.0013240232
0.0012004333
0.001004325
0.0009355032
0.00076746339
0.00078308366
0.00079071721
0.00078495001
0.00076939395
0.00074547642
0.00071660357
0.00068477382
0.0006676885
0.00067698414
0.00073459376
0.00087722808
0.0010757492
0.0012431159
0.0013189185
0.0012935649
0.0011473971
0.00086702396
0.00057779574
0.00057446355
0.00099654858
0.001416053
0.0014514705
0.0010734584
0.00044152808
0.00066653838
0.00086731267
0.00099938408
0.0010653467
0.0010822144
0.0010592642
0.00099943288
0.00090795586
0.00079986168
0.00070946142
0.00069001975
0.00077116875
0.00093672015
0.0011049719
0.001195592
0.0011899851
0.001081339
0.00084647143
0.00056365362
0.00051636636
0.00092393901
0.0014240237
0.0015997545
0.0012828977
0.00093526135
0.00029769072
0.00060964503
0.0010061368
0.0012742073
0.0014003685
0.0014287722
0.0013956739
0.0013207486
0.001211443
0.001068143
0.00089240994
0.00070057607
0.00054923246
0.00053710079
0.00069062678
0.00089911365
0.0010329749
0.0010570951
0.00098303824
0.00079660134
0.00053678429
0.00046271443
0.00084588032
0.0013815843
0.0016595439
0.0014150869
0.00099540992
0.00037158717
0.00097338928
0.0014207087
0.0016402716
0.0016915386
0.0016508031
0.0015664777
0.0014602479
0.0013343393
0.0011773298
0.00097251013
0.00073039619
0.00050463306
0.00035389115
0.00039865073
0.00061139507
0.00080935269
0.00088899954
0.00085566124
0.00071918933
0.00049860295
0.00042292843
0.00078839879
0.0013268351
0.0016557153
0.0014857619
0.0010586245
0.0005022342
0.0013568656
0.0017593822
0.0018892681
0.0018516482
0.0017445183
0.0016222297
0.0014980734
0.0013586519
0.0011748587
0.00091241896
0.00060999169
0.00038434173
0.00025829603
0.00022207311
0.00035940468
0.00057020728
0.00069890394
0.00070853405
0.00062664822
0.00045901343
0.00042400923
0.00077561197
0.0012864455
0.0016138115
0.0015124986
0.0011194982
0.0007821814
0.0007755867
0.0016993557
0.0020265751
0.0020610715
0.0019380073
0.0017660479
0.0015999881
0.0014398907
0.0012666274
0.0010352438
0.00069650442
0.00036624711
0.00024537667
0.00013728682
0.00011341901
0.00019989806
0.00038820171
0.00052543417
0.00056402586
0.00053661568
0.0004392872
0.00046375721
0.00082060963
0.0012742632
0.0015547552
0.0014832653
0.0011247888
0.00072981536
0.0012400382