/*--------------------------------*- C++ -*----------------------------------*\
| =========                 |                                                 |
| \\      /  F ield         | OpenFOAM: The Open Source CFD Toolbox           |
|  \\    /   O peration     | Version:  2406                                  |
|   \\  /    A nd           | Website:  www.openfoam.com                      |
|    \\/     M anipulation  |                                                 |
\*---------------------------------------------------------------------------*/
FoamFile
{
    version     2.0;
    format      ascii;
    arch        "LSB;label=32;scalar=64";
    class       volScalarField;
    location    "500";
    object      nut;
}
// * * * * * * * * * * * * * * * * * * * * * * * * * * * * * * * * * * * * * //

dimensions      [0 2 -1 0 0 0 0];

internalField   nonuniform List<scalar> 
150387
(
9.1146324e-06
1.6931024e-05
2.098235e-05
2.0431828e-05
1.6827981e-05
1.1471114e-05
6.5344292e-06
4.4405156e-06
3.3748841e-06
2.1360291e-05
3.1184548e-05
3.7537848e-05
4.0457758e-05
4.1462409e-05
4.0238643e-05
3.6402407e-05
2.9167708e-05
1.9327346e-05
1.0294897e-05
6.1751382e-06
3.5751224e-06
1.7036083e-05
3.1065174e-05
4.2032444e-05
4.8580303e-05
5.1643835e-05
5.2202233e-05
5.1059839e-05
4.893761e-05
4.586491e-05
4.1015787e-05
3.3320589e-05
2.2745657e-05
1.1968924e-05
6.5270671e-06
5.2335184e-06
2.9748705e-06
3.0945849e-06
2.2225423e-05
3.2183399e-05
3.8412699e-05
4.3014455e-05
4.7750072e-05
5.2061e-05
5.3964422e-05
5.3018869e-05
5.0391864e-05
4.7450026e-05
4.4303989e-05
3.9536611e-05
3.1777908e-05
2.0849568e-05
1.0796818e-05
6.9664167e-06
9.3341555e-06
5.2512129e-06
2.7688682e-06
1.9171443e-05
2.9319942e-05
3.6648713e-05
4.1389545e-05
4.4448525e-05
4.6147296e-05
4.6550913e-05
4.6675817e-05
4.6714162e-05
4.5869365e-05
4.4075219e-05
4.2018029e-05
3.9415801e-05
3.4406977e-05
2.5456397e-05
1.443361e-05
8.8537397e-06
1.0081485e-05
1.3211323e-05
9.6413275e-06
1.9830312e-05
2.7625064e-05
3.1500112e-05
3.460407e-05
3.7356543e-05
3.9480353e-05
4.0938793e-05
4.1067987e-05
4.0064988e-05
3.8507788e-05
3.7413369e-05
3.6689295e-05
3.5940493e-05
3.5020627e-05
3.2441192e-05
2.5816958e-05
1.5507274e-05
9.9853843e-06
1.0916579e-05
1.7398794e-05
1.548234e-05
7.3775231e-06
1.2393259e-05
1.8764151e-05
2.2440795e-05
2.536437e-05
2.7931301e-05
3.0092578e-05
3.1794647e-05
3.243574e-05
3.2463956e-05
3.2236158e-05
3.1116139e-05
2.9411723e-05
2.8348569e-05
2.8204707e-05
2.8040338e-05
2.7560948e-05
2.3689431e-05
1.4613715e-05
1.0312508e-05
1.231763e-05
1.8627411e-05
1.9331011e-05
1.5836399e-05
4.7443869e-06
2.2487061e-06
1.1823931e-05
1.6517976e-05
2.0879832e-05
2.3757723e-05
2.5041932e-05
2.5431095e-05
2.540826e-05
2.5426687e-05
2.5606373e-05
2.5538255e-05
2.5003708e-05
2.4103915e-05
2.2393806e-05
2.1051853e-05
2.1331403e-05
2.1836163e-05
2.000181e-05
1.2241714e-05
1.0557924e-05
1.4073564e-05
2.0129908e-05
2.2502305e-05
2.2811957e-05
1.5903749e-05
7.1610139e-06
1.160107e-05
1.2617971e-05
1.2627747e-05
1.2623702e-05
1.3733171e-05
1.5469841e-05
1.7402397e-05
1.9000429e-05
1.9387378e-05
1.9633807e-05
1.9508717e-05
1.8881517e-05
1.757888e-05
1.5687765e-05
1.5126481e-05
1.6024686e-05
1.5747797e-05
9.3291637e-06
1.1299066e-05
1.5630391e-05
2.1744859e-05
2.5421945e-05
2.9435299e-05
2.5059968e-05
9.3004427e-06
8.3719808e-06
1.3798995e-05
1.8667158e-05
1.9921954e-05
1.8579431e-05
1.4954475e-05
1.1774338e-05
9.3479577e-06
8.0907497e-06
9.2829785e-06
1.223205e-05
1.4079824e-05
1.4134437e-05
1.3507482e-05
1.2179776e-05
1.1020863e-05
1.1439426e-05
1.173207e-05
7.5282197e-06
1.2400382e-05
1.660954e-05
2.3515083e-05
2.8038095e-05
3.5554112e-05
3.1768771e-05
1.5789223e-05
5.6631198e-06
1.456487e-05
2.6395304e-05
3.3236381e-05
3.4144772e-05
3.1280173e-05
2.6536849e-05
2.0766303e-05
1.5098351e-05
1.0721907e-05
7.470837e-06
6.3653464e-06
6.6747346e-06
9.3732329e-06
1.0099169e-05
9.3695612e-06
8.4301502e-06
8.0909381e-06
7.8480173e-06
7.1266987e-06
1.2839234e-05
1.8242926e-05
2.5573786e-05
3.1327444e-05
4.019733e-05
3.6758322e-05
2.2678649e-05
9.1099801e-06
2.4380808e-05
3.7175084e-05
4.249783e-05
4.1313931e-05
3.613373e-05
2.8555022e-05
2.1790038e-05
1.5622623e-05
1.1592578e-05
9.436526e-06
8.0207045e-06
6.6344335e-06
6.3589695e-06
7.3639017e-06
7.335137e-06
6.9254123e-06
6.4318894e-06
6.0468129e-06
8.908612e-06
1.3972127e-05
2.042135e-05
2.7720215e-05
3.5872145e-05
4.2724948e-05
3.9600347e-05
2.838273e-05
6.0833026e-06
1.4150781e-05
3.3844943e-05
4.5081033e-05
4.8023473e-05
4.5213216e-05
3.8442535e-05
2.9810516e-05
2.2962223e-05
1.7561691e-05
1.3890734e-05
1.1117254e-05
8.3319653e-06
6.849713e-06
5.3628873e-06
5.3267636e-06
6.5312133e-06
6.1311959e-06
5.394968e-06
6.5007052e-06
1.1309958e-05
1.6482487e-05
2.2563806e-05
3.06135e-05
3.9658132e-05
4.3466438e-05
4.0971942e-05
3.0701283e-05
8.439433e-06
1.8921218e-05
4.0435964e-05
5.0254664e-05
5.2171323e-05
4.8420775e-05
4.0254488e-05
3.1242921e-05
2.55352e-05
2.0572865e-05
1.6167414e-05
1.2279734e-05
8.9364197e-06
5.5514052e-06
3.2672082e-06
3.3025511e-06
5.6560601e-06
6.1158724e-06
5.540845e-06
9.1120422e-06
1.3198383e-05
1.8031027e-05
2.4659449e-05
3.3485285e-05
4.0963212e-05
4.3224088e-05
4.0903706e-05
3.0313047e-05
7.6229899e-06
2.2769098e-05
4.3649164e-05
5.3825364e-05
5.6254985e-05
5.1258881e-05
4.2306596e-05
3.3970478e-05
2.7968938e-05
2.2741328e-05
1.7608977e-05
1.2751146e-05
6.9932161e-06
5.7140883e-06
4.1906426e-06
3.4187544e-06
5.6451679e-06
6.1348845e-06
7.2945708e-06
9.8961084e-06
1.382087e-05
1.9259021e-05
2.6943031e-05
3.4934771e-05
4.0649736e-05
4.217611e-05
3.883701e-05
2.6034544e-05
6.690006e-06
2.0704723e-05
4.4436008e-05
5.6648834e-05
5.978281e-05
5.3244147e-05
4.512744e-05
3.7434608e-05
3.0155999e-05
2.420868e-05
1.8384853e-05
1.1709265e-05
5.7597854e-06
6.5841642e-06
5.9409981e-06
5.6812968e-06
6.0674041e-06
6.2340901e-06
7.7353895e-06
1.0052398e-05
1.4597169e-05
2.1255064e-05
2.8201446e-05
3.5064587e-05
3.9326051e-05
3.9307429e-05
3.3401933e-05
1.948958e-05
2.5825673e-06
9.2699368e-06
4.258431e-05
5.8389025e-05
6.127546e-05
5.4413634e-05
4.8487718e-05
4.0001578e-05
3.199522e-05
2.5216462e-05
1.8686156e-05
9.1900852e-06
6.1713185e-06
7.6906432e-06
7.313439e-06
5.5732134e-06
5.3012169e-06
5.8971687e-06
7.4116152e-06
1.1039866e-05
1.6302922e-05
2.2518536e-05
2.8546713e-05
3.3512769e-05
3.5852139e-05
3.3470071e-05
2.5274391e-05
1.2332354e-05
4.132627e-06
7.1707544e-06
3.8640412e-05
5.7910988e-05
5.9523536e-05
5.5791979e-05
5.1508443e-05
4.1983465e-05
3.3745692e-05
2.5835923e-05
1.9109446e-05
7.7851919e-06
7.9404453e-06
9.2654536e-06
9.5175496e-06
9.0162736e-06
6.5176746e-06
5.9428388e-06
7.7110405e-06
1.1881897e-05
1.6627002e-05
2.1482893e-05
2.5497521e-05
2.8268449e-05
2.8748382e-05
2.4788496e-05
1.6001903e-05
7.6864305e-06
2.9186655e-05
5.3825078e-05
5.4898452e-05
5.6552155e-05
5.2762508e-05
4.4046704e-05
3.5476526e-05
2.6822924e-05
1.9219834e-05
8.3778736e-06
1.1687417e-05
1.1913149e-05
1.2886088e-05
1.2645615e-05
1.1341321e-05
9.4043826e-06
7.4808552e-06
7.8686533e-06
1.003581e-05
1.2941387e-05
1.579362e-05
1.7697561e-05
1.7774682e-05
1.4677777e-05
9.2832367e-06
5.015644e-06
1.6913067e-05
4.4550079e-05
4.9205748e-05
5.4952668e-05
5.2357441e-05
4.5303006e-05
3.6715035e-05
2.803332e-05
1.8928241e-05
1.0220617e-05
1.7008263e-05
1.6620532e-05
1.6846164e-05
1.7052468e-05
1.5939403e-05
1.4210419e-05
1.3635017e-05
1.3708566e-05
1.3091102e-05
1.2855119e-05
1.37452e-05
1.441519e-05
1.3753701e-05
1.1193703e-05
6.8097301e-06
3.8219455e-06
2.8265041e-05
4.2396984e-05
5.063328e-05
5.0406679e-05
4.4873335e-05
3.690953e-05
2.9144926e-05
1.9127637e-05
1.2694968e-05
2.2968928e-05
2.3461639e-05
2.2554918e-05
2.2364944e-05
2.1983336e-05
2.0390434e-05
1.8636665e-05
1.798282e-05
1.8119253e-05
1.7525418e-05
1.6481899e-05
1.4623151e-05
1.2045863e-05
8.4780809e-06
5.5822718e-06
9.1856936e-06
3.3011532e-05
4.241592e-05
4.7050254e-05
4.2420529e-05
3.6426197e-05
2.9624601e-05
1.9220969e-05
1.4983028e-05
2.8408377e-05
3.1063419e-05
3.0735029e-05
2.9771765e-05
2.9262532e-05
2.8600713e-05
2.7125451e-05
2.5164297e-05
2.3334623e-05
2.1750672e-05
1.9925607e-05
1.8007657e-05
1.6375283e-05
1.2391679e-05
3.2554283e-06
1.5703583e-05
2.9979814e-05
4.1454552e-05
3.7449851e-05
3.4891571e-05
2.938382e-05
1.9022102e-05
1.6437225e-05
3.2647106e-05
3.7832927e-05
3.9391976e-05
3.9403892e-05
3.8187027e-05
3.6813427e-05
3.5262688e-05
3.3353031e-05
3.086742e-05
2.8083512e-05
2.5034248e-05
2.1267775e-05
1.2845666e-05
4.4317356e-06
1.4408392e-05
3.2563772e-05
3.0975851e-05
3.1917298e-05
2.8372264e-05
1.808753e-05
1.7905035e-05
3.4773718e-05
4.2314603e-05
4.5374475e-05
4.7141795e-05
4.7055904e-05
4.4328285e-05
4.0351721e-05
3.6974207e-05
3.3557285e-05
2.8773094e-05
2.3258473e-05
1.6353061e-05
6.3227658e-06
1.2450897e-05
2.3027956e-05
2.7214518e-05
2.6717365e-05
1.5435774e-05
1.6349337e-05
3.3486278e-05
4.2087878e-05
4.6263287e-05
4.8639131e-05
5.0454962e-05
5.1134976e-05
4.9465471e-05
4.4499318e-05
3.6024533e-05
2.586898e-05
1.4266648e-05
5.5653157e-06
5.593535e-06
1.7149561e-05
2.070154e-05
1.1538853e-05
1.1528714e-05
2.5473951e-05
3.6130399e-05
4.2157617e-05
4.4882854e-05
4.5460552e-05
4.4398588e-05
4.1217442e-05
3.4502027e-05
2.4528656e-05
1.3402625e-05
3.8308462e-06
5.2924899e-06
6.2670816e-06
7.0895347e-06
1.2427118e-05
2.0598261e-05
2.806876e-05
3.1727164e-05
3.1971268e-05
2.7702102e-05
2.0692318e-05
1.2317344e-05
7.2037063e-06
3.9896222e-06
5.1926409e-06
6.3299173e-06
6.9964618e-06
7.7741914e-06
5.5102605e-06
9.1124923e-06
2.1879401e-05
3.5215052e-05
3.7972723e-05
3.4868257e-05
2.9247921e-05
2.1284277e-05
1.8265822e-05
1.0176648e-05
2.1164854e-05
5.1977784e-05
6.7858439e-05
7.9968197e-05
8.8545696e-05
9.1548786e-05
8.9466521e-05
8.2274719e-05
6.8979563e-05
5.0920085e-05
3.179982e-05
2.1134124e-05
5.4925652e-06
4.0784053e-06
1.0609121e-05
4.4398487e-05
6.7830095e-05
8.7279717e-05
0.00010270432
0.00011320327
0.00011868583
0.00011949578
0.00011646071
0.00011004349
9.9741767e-05
8.3988586e-05
6.3086573e-05
4.25709e-05
2.4665562e-05
8.0822985e-06
1.2665267e-05
1.4112273e-05
3.9236124e-05
5.9889273e-05
7.8824313e-05
9.398812e-05
0.00010555354
0.00011457086
0.00012129371
0.00012512239
0.00012543046
0.00012217358
0.00011535857
0.00010377459
8.5684026e-05
6.2884748e-05
4.2104381e-05
1.4456144e-05
1.2371916e-05
1.1179183e-05
1.4374725e-05
3.4008506e-05
5.1180695e-05
6.7338844e-05
8.0416911e-05
9.0640667e-05
9.8758095e-05
0.00010566436
0.00011191517
0.00011723197
0.00012071116
0.00012145902
0.00011886085
0.00011192983
9.8363999e-05
7.7211644e-05
5.5117677e-05
2.4533813e-05
1.507233e-05
1.6427364e-05
1.2981565e-05
1.1195817e-05
2.5300782e-05
3.509429e-05
4.5314108e-05
5.3916652e-05
6.1099413e-05
6.7936669e-05
7.5459602e-05
8.4025902e-05
9.2880957e-05
0.00010101815
0.00010748045
0.00011176557
0.00011328329
0.00011102957
0.0001025196
8.4936811e-05
6.2630145e-05
3.4718601e-05
1.8876413e-05
2.1286742e-05
2.1226222e-05
1.3598629e-05
1.4253613e-05
1.9891303e-05
2.825211e-05
3.6065097e-05
4.1385302e-05
4.4956159e-05
4.929639e-05
5.4460124e-05
6.2071313e-05
7.1481649e-05
8.1438196e-05
9.0159482e-05
9.6799011e-05
0.00010140807
0.00010315037
9.9621421e-05
8.6582229e-05
6.5378305e-05
4.1141396e-05
2.273167e-05
2.644391e-05
2.9439708e-05
2.9471839e-05
1.194026e-05
1.3400051e-05
1.7670343e-05
2.7955138e-05
3.717577e-05
4.1599763e-05
4.4061496e-05
4.4935281e-05
4.6860627e-05
4.8316318e-05
5.13494e-05
5.6318961e-05
6.3435078e-05
7.1711361e-05
7.9476838e-05
8.5557192e-05
9.0073566e-05
9.098301e-05
8.270879e-05
6.3815134e-05
4.3095495e-05
2.5206851e-05
3.1226573e-05
3.8099968e-05
4.1537177e-05
2.2480728e-05
1.9630564e-05
3.8834688e-05
5.4873168e-05
6.4106663e-05
6.7156996e-05
6.4929738e-05
5.8343685e-05
5.0088739e-05
4.2941041e-05
3.889636e-05
3.9798127e-05
4.4791583e-05
5.2383358e-05
6.0058224e-05
6.7035759e-05
7.3243625e-05
7.779663e-05
7.3937042e-05
5.8086697e-05
4.2048389e-05
2.7208526e-05
3.5584281e-05
4.6480857e-05
5.356694e-05
3.9107307e-05
1.5752803e-05
5.3835744e-06
3.1221349e-05
5.9444753e-05
7.9851541e-05
9.1311146e-05
9.4584336e-05
9.0553749e-05
8.0176431e-05
6.5138836e-05
4.7528683e-05
3.1960735e-05
2.3101421e-05
2.307004e-05
2.937035e-05
3.8195446e-05
4.6388794e-05
5.3842725e-05
6.0981483e-05
6.084084e-05
4.9272018e-05
4.0150272e-05
2.9417425e-05
4.0271185e-05
5.4618529e-05
6.5232781e-05
5.046798e-05
2.9713789e-05
1.3299562e-05
5.0700309e-05
8.336889e-05
0.00010385251
0.0001130964
0.00011337421
0.00010637633
9.3812134e-05
7.7200539e-05
5.7782971e-05
3.9454886e-05
2.4976736e-05
1.5322011e-05
1.38741e-05
1.958029e-05
2.7599489e-05
3.5427862e-05
4.3355968e-05
4.5324241e-05
3.9559302e-05
3.7514949e-05
3.2668558e-05
4.6554641e-05
6.372886e-05
7.5573196e-05
6.0405601e-05
3.6506816e-05
9.9357137e-06
7.0867435e-05
0.00010300046
0.00012046525
0.00012567603
0.00012157969
0.00011067127
9.5465539e-05
7.7626959e-05
5.7920802e-05
3.8425714e-05
2.3136745e-05
1.4127016e-05
9.753699e-06
1.0249076e-05
1.5536486e-05
2.209261e-05
2.9028482e-05
3.1133725e-05
3.2417569e-05
3.6450696e-05
3.9959046e-05
5.5701041e-05
7.4172889e-05
8.3939982e-05
6.8852307e-05
4.3662158e-05
7.391085e-06
2.4552179e-05
8.6006613e-05
0.00011660273
0.00013135495
0.00013292718
0.0001252085
0.00011174341
9.5218079e-05
7.6510322e-05
5.5380393e-05
3.3218901e-05
1.7162152e-05
1.0459215e-05
7.2447944e-06
6.2836981e-06
9.6981443e-06
1.4253397e-05
1.9029485e-05
2.2096048e-05
3.108713e-05
3.9991822e-05
5.0760485e-05
6.8074741e-05
8.4635525e-05
8.9702073e-05
7.4180047e-05
4.8736152e-05
1.4979139e-05
4.6921514e-05
9.5211823e-05
0.00012601926
0.00013863331
0.00013711
0.00012661438
0.00011119742
9.3109231e-05
7.2523901e-05
4.9190401e-05
2.5162382e-05
1.1117064e-05
7.0817794e-06
3.0836309e-06
3.8099113e-06
7.7020383e-06
1.0550381e-05
1.4075875e-05
2.2587389e-05
3.5994869e-05
4.9006048e-05
6.4286348e-05
8.1293224e-05
9.3144625e-05
9.2947376e-05
7.5492035e-05
4.0046459e-05
1.5256429e-05
3.6466274e-05
9.8824528e-05
0.0001318126
0.0001427045
0.00013895506
0.0001264292
0.00010909226
8.8235663e-05
6.5999848e-05
4.1850517e-05
1.8530794e-05
1.0421034e-05
7.5670228e-06
4.9253139e-06
4.5972489e-06
7.332121e-06
1.0314103e-05
1.7119589e-05
2.9845117e-05
4.6277716e-05
6.2527488e-05
7.8858331e-05
9.1999776e-05
9.7873707e-05
9.2243595e-05
7.1747061e-05
4.3853793e-05
1.4093198e-05
3.8757434e-05
9.6935781e-05
0.00013415746
0.0001432521
0.00013887223
0.0001248119
0.00010483043
8.1256378e-05
5.9706531e-05
3.7064683e-05
1.8329035e-05
1.558283e-05
1.0957121e-05
7.2419959e-06
7.646335e-06
9.8191845e-06
1.5021611e-05
2.5720573e-05
4.2352187e-05
6.1035608e-05
7.7808087e-05
9.0158825e-05
9.8020187e-05
9.7467998e-05
8.6662729e-05
6.2050977e-05
3.4994943e-05
9.9277802e-06
2.8755782e-05
8.8724096e-05
0.00013121973
0.0001398829
0.00013718878
0.00012167248
9.8812263e-05
7.3361265e-05
5.5330418e-05
3.6978625e-05
2.6792763e-05
2.5702609e-05
1.8540634e-05
1.2318905e-05
1.0688152e-05
1.5449952e-05
2.424968e-05
3.9169045e-05
5.7918215e-05
7.4713518e-05
8.7462601e-05
9.448273e-05
9.6024313e-05
9.0211668e-05
7.4248576e-05
4.6375152e-05
2.1070313e-05
1.8615788e-05
7.5994903e-05
0.00012184794
0.00013257596
0.00013372271
0.0001170715
9.2014897e-05
6.5768186e-05
5.3238967e-05
4.228017e-05
4.2491922e-05
4.1729172e-05
3.225544e-05
2.3708315e-05
1.8272196e-05
2.0569934e-05
3.2254399e-05
4.8485533e-05
6.5383925e-05
7.7766067e-05
8.5193888e-05
8.7442896e-05
8.4244554e-05
7.4173691e-05
5.5473571e-05
2.934299e-05
1.4844046e-05
5.7989236e-05
0.00010523157
0.0001207616
0.00012737985
0.0001111871
8.4990316e-05
6.0006812e-05
5.2699482e-05
5.0974787e-05
6.0224841e-05
6.1423489e-05
4.9923096e-05
3.9630079e-05
3.2482934e-05
3.0171222e-05
3.4511913e-05
4.4370706e-05
5.573679e-05
6.45743e-05
6.9470213e-05
6.9829175e-05
6.53813e-05
5.5279186e-05
3.9425007e-05
2.0880436e-05
1.0851796e-05
3.424948e-05
8.2131707e-05
0.00010303608
0.00011641928
0.00010371019
7.8101017e-05
5.6233107e-05
5.1870913e-05
5.9095655e-05
7.5557866e-05
7.9658462e-05
6.8378968e-05
5.5496736e-05
4.5426659e-05
3.9847136e-05
3.936637e-05
4.2256173e-05
4.6176698e-05
4.9550943e-05
5.1681105e-05
5.0860293e-05
4.5400596e-05
3.4483145e-05
1.9397694e-05
1.018014e-05
3.8116615e-06
9.7559524e-06
5.2309645e-05
7.8738789e-05
9.9228877e-05
9.3334812e-05
7.1250895e-05
5.1106835e-05
4.9201896e-05
6.5521515e-05
8.6468976e-05
9.4633371e-05
8.6677348e-05
7.3255022e-05
5.9694051e-05
4.8284873e-05
4.0641328e-05
3.6257563e-05
3.4357429e-05
3.3285667e-05
3.1887495e-05
2.8625189e-05
2.1908456e-05
1.4188293e-05
9.4604912e-06
6.3781505e-06
2.4557379e-05
5.0386124e-05
7.5358787e-05
7.8445053e-05
6.2926598e-05
4.6896562e-05
4.5090623e-05
6.8171e-05
9.1781703e-05
0.00010494466
0.00010174808
9.2206235e-05
7.9458091e-05
6.6155711e-05
5.4523607e-05
4.5972535e-05
4.032691e-05
3.6267749e-05
3.190599e-05
2.6574941e-05
2.0836796e-05
1.6044756e-05
1.6740342e-05
2.012406e-05
4.7654608e-05
5.8714139e-05
5.1297293e-05
4.1353028e-05
3.8706819e-05
6.5746749e-05
9.1179642e-05
0.00010763532
0.00011102921
0.00010695299
9.8611659e-05
8.7994589e-05
7.7524615e-05
6.831648e-05
5.9687151e-05
5.097608e-05
4.1590821e-05
3.1528281e-05
2.2050629e-05
1.6853374e-05
1.071926e-05
2.0886226e-05
3.7650227e-05
3.607696e-05
3.4477231e-05
3.1421392e-05
5.728258e-05
8.2840405e-05
0.00010220106
0.00011093499
0.00011265881
0.0001096247
0.00010246149
9.2520151e-05
8.1352785e-05
6.9537262e-05
5.6480434e-05
4.2179531e-05
2.822534e-05
2.038714e-05
1.2106179e-05
1.7851862e-05
2.173416e-05
2.6300675e-05
2.2672251e-05
4.159247e-05
6.5534423e-05
8.6099973e-05
9.908091e-05
0.00010498838
0.00010652121
0.0001041828
9.7574827e-05
8.68047e-05
7.2380945e-05
5.5670721e-05
3.6765313e-05
2.0117502e-05
1.1388398e-05
1.5334225e-05
2.4399761e-05
1.6065274e-05
2.0545455e-05
3.8577203e-05
5.7285598e-05
7.307255e-05
8.1174453e-05
8.294423e-05
7.9688009e-05
7.1378286e-05
6.0182518e-05
4.6043541e-05
3.4381729e-05
1.7914549e-05
1.3197037e-05
5.1067864e-06
1.4067625e-05
2.0577415e-05
3.6540966e-05
4.7592789e-05
5.2587116e-05
5.1113357e-05
4.445608e-05
3.6710276e-05
2.3297018e-05
8.139299e-06
5.3358956e-06
1.2239808e-05
1.4242807e-05
1.5031025e-05
1.1961369e-05
1.0461764e-05
2.3216014e-05
3.721936e-05
4.2289767e-05
3.9606498e-05
3.3659801e-05
2.5101977e-05
1.8287658e-05
1.0962965e-05
2.553008e-05
6.6030847e-05
8.6754608e-05
0.00010178847
0.00011249484
0.00011549934
0.00011183427
0.00010172019
8.4063733e-05
6.0985786e-05
3.7714592e-05
2.4952204e-05
5.5659524e-06
5.2907452e-06
1.1769255e-05
5.7591283e-05
9.106695e-05
0.00011545913
0.00013256801
0.00014320904
0.00014835267
0.00014867051
0.00014485698
0.00013673027
0.00012346529
0.0001033461
7.7058081e-05
5.2561691e-05
2.602211e-05
9.8093784e-06
1.6864063e-05
1.5890811e-05
5.4614415e-05
8.5647372e-05
0.00011101954
0.00012846417
0.00013951364
0.00014647362
0.00015108156
0.00015377011
0.00015397915
0.00015070286
0.00014288123
0.00012856903
0.00010584397
7.7804424e-05
4.8914911e-05
1.6483973e-05
1.6158187e-05
1.3665816e-05
1.6174798e-05
4.6877664e-05
7.3748326e-05
9.5534934e-05
0.00010947845
0.00011777477
0.0001235224
0.00012870098
0.00013451783
0.00014091896
0.00014653229
0.00014941569
0.00014780943
0.00013981251
0.00012276905
9.6400788e-05
6.686759e-05
2.9480795e-05
2.1270376e-05
2.2631209e-05
1.5806463e-05
1.2721897e-05
3.3550336e-05
5.0691694e-05
6.600378e-05
7.5678146e-05
8.0176996e-05
8.2757134e-05
8.6491001e-05
9.3500566e-05
0.00010389417
0.000116405
0.00012864519
0.00013813603
0.00014288328
0.00014110596
0.00013015275
0.00010787445
7.8749248e-05
4.3836379e-05
2.7849384e-05
3.2063471e-05
3.0168004e-05
1.6633486e-05
1.8039807e-05
2.8584022e-05
4.1461939e-05
5.0912618e-05
5.5825305e-05
5.7730097e-05
6.0850307e-05
6.3444572e-05
6.7824951e-05
7.3842632e-05
8.7750107e-05
0.00010482857
0.00012003327
0.00013072241
0.00013484112
0.00012993634
0.0001128762
8.5794781e-05
5.4158214e-05
3.3975269e-05
4.0945288e-05
4.4992124e-05
3.9315075e-05
1.3897216e-05
1.901884e-05
2.3265406e-05
3.7149384e-05
5.0056468e-05
6.0323754e-05
6.5789723e-05
6.5739503e-05
6.5030635e-05
6.1497099e-05
5.8559549e-05
5.9749331e-05
6.7004977e-05
8.0947478e-05
9.7912063e-05
0.00011283891
0.0001221697
0.00012319991
0.00011198178
8.8492503e-05
5.953741e-05
3.8239896e-05
4.7690748e-05
5.8716507e-05
5.8891972e-05
2.8912904e-05
2.0940889e-05
4.576128e-05
6.7875704e-05
8.4116316e-05
9.4266722e-05
9.8549682e-05
9.6489528e-05
8.7457759e-05
7.3887044e-05
5.9186582e-05
4.9501626e-05
4.9115477e-05
5.8111779e-05
7.4237422e-05
9.0953434e-05
0.00010417696
0.00011078033
0.00010561463
8.6630398e-05
6.1607212e-05
3.9055733e-05
5.2418327e-05
6.977095e-05
7.5434662e-05
5.0443098e-05
1.8512764e-05
5.5385124e-06
3.6425559e-05
7.2729631e-05
0.00010026791
0.00011721371
0.00012513275
0.00012545574
0.00011894201
0.00010595115
8.7095224e-05
6.5562689e-05
4.4517403e-05
3.1851536e-05
3.3576905e-05
4.6864943e-05
6.4986832e-05
8.175782e-05
9.3404904e-05
9.3974177e-05
8.0138864e-05
5.9424298e-05
3.8030427e-05
5.5832213e-05
7.8450657e-05
8.9034595e-05
6.6179512e-05
3.3731387e-05
1.3724448e-05
6.0667186e-05
0.0001027657
0.00012935314
0.00014256941
0.0001458646
0.00014152788
0.00013087544
0.00011470227
9.3615636e-05
6.939562e-05
4.6327933e-05
2.8446329e-05
1.838238e-05
2.3597762e-05
3.9108762e-05
5.7220803e-05
7.2492523e-05
7.7535665e-05
6.9477931e-05
5.4836273e-05
3.9457062e-05
5.9714969e-05
8.6035969e-05
9.9608258e-05
7.885303e-05
4.251817e-05
1.119346e-05
8.6620282e-05
0.00012786034
0.00015011211
0.00015796684
0.00015581056
0.00014652067
0.00013163258
0.00011191122
8.7790384e-05
6.0675986e-05
3.6559557e-05
2.131547e-05
1.3669145e-05
1.2254962e-05
2.1071116e-05
3.6376547e-05
5.1840136e-05
5.9719565e-05
5.6636798e-05
4.9909813e-05
4.3687416e-05
6.6418363e-05
9.4066701e-05
0.00010738483
8.9101828e-05
5.3018052e-05
8.5995207e-06
2.9167272e-05
0.0001067382
0.0001453479
0.00016331199
0.00016605972
0.00015884777
0.00014521904
0.0001263839
0.00010299408
7.5097404e-05
4.4592831e-05
2.1667582e-05
1.3153348e-05
8.0992231e-06
6.9872934e-06
1.1835913e-05
2.2784495e-05
3.5851832e-05
4.2621447e-05
4.5425222e-05
4.7403259e-05
5.206762e-05
7.7603687e-05
0.00010291364
0.00011247875
9.4583017e-05
5.9887628e-05
1.6698061e-05
5.5480823e-05
0.00011915313
0.00015727917
0.00017174947
0.00016985861
0.00015780599
0.00013955002
0.00011593008
8.8610944e-05
5.8831391e-05
2.8979383e-05
1.2688947e-05
7.6167506e-06
2.9195804e-06
4.2749125e-06
8.9848721e-06
1.5952649e-05
2.431747e-05
3.2260477e-05
4.2054689e-05
5.0790793e-05
6.7562435e-05
9.2363736e-05
0.00011163829
0.00011541383
9.4912771e-05
4.7603213e-05
1.6871132e-05
4.1583641e-05
0.00012467564
0.00016430357
0.00017666591
0.00017101994
0.00015405974
0.00013046305
0.00010163068
7.3942933e-05
4.6964365e-05
2.345513e-05
1.438909e-05
8.2830952e-06
4.8054419e-06
5.0844036e-06
8.4928685e-06
1.3414904e-05
2.2122055e-05
3.5384615e-05
5.0851801e-05
6.7051525e-05
8.7559667e-05
0.00010695603
0.00011786668
0.00011421701
8.9603412e-05
5.3979241e-05
1.5668621e-05
4.2937204e-05
0.00012285817
0.0001673095
0.00017870433
0.00017072955
0.0001487493
0.00011902763
8.6769016e-05
6.4842151e-05
4.5584573e-05
3.2417753e-05
2.3595951e-05
1.3295268e-05
8.1050033e-06
8.8483338e-06
1.197863e-05
1.9472064e-05
3.3259983e-05
5.1822061e-05
7.1208734e-05
8.9500244e-05
0.00010562602
0.00011697223
0.00011889667
0.00010760517
7.7066353e-05
4.3379501e-05
1.2248092e-05
2.9333364e-05
0.0001123987
0.00016455682
0.00017768119
0.00016972616
0.00014311939
0.00010752178
7.5918902e-05
6.3008569e-05
5.5282045e-05
5.0764032e-05
3.9723409e-05
2.3810788e-05
1.5130392e-05
1.6128134e-05
2.3637823e-05
3.6787138e-05
5.5368325e-05
7.5566221e-05
9.3307627e-05
0.00010711011
0.00011554971
0.00011782168
0.00011165006
9.2935644e-05
5.7499751e-05
2.4411742e-05
1.9532455e-05
9.6484064e-05
0.00015484771
0.0001728206
0.00016779013
0.00013826142
9.8144958e-05
7.2490694e-05
6.631529e-05
7.1012574e-05
7.2792612e-05
6.0840834e-05
4.1336359e-05
2.870886e-05
2.7562001e-05
3.8583928e-05
5.5679465e-05
7.4470121e-05
9.1272473e-05
0.00010313998
0.00010973618
0.00011075425
0.00010609849
9.3606672e-05
7.0257598e-05
3.620322e-05
1.6073145e-05
7.3308183e-05
0.00013644326
0.00016201081
0.00016352478
0.0001344814
9.2216234e-05
7.0054305e-05
7.0698869e-05
8.5480166e-05
9.3013586e-05
8.2870999e-05
6.1598046e-05
4.5614919e-05
4.0823546e-05
4.7062942e-05
6.0764782e-05
7.5360484e-05
8.652333e-05
9.2856631e-05
9.4705169e-05
9.2355732e-05
8.5195729e-05
7.2095878e-05
5.2150278e-05
2.6956289e-05
1.1816899e-05
4.1831666e-05
0.00010813474
0.00014202259
0.0001542595
0.00013052267
8.9340505e-05
6.7945624e-05
7.3109467e-05
9.5187119e-05
0.00010833247
0.00010265931
8.2027733e-05
6.1120841e-05
4.974757e-05
4.9513434e-05
5.5942182e-05
6.3605247e-05
6.9763598e-05
7.270074e-05
7.2084862e-05
6.8667229e-05
5.9847826e-05
4.4228865e-05
2.398115e-05
1.0409276e-05
4.5672805e-06
1.2318862e-05
6.6926911e-05
0.00011041872
0.00013618952
0.00012319649
8.7222473e-05
6.4124195e-05
7.2052448e-05
0.00010055048
0.00011823265
0.0001191346
0.00010349639
8.1663117e-05
6.2309426e-05
5.0207872e-05
4.6071604e-05
4.4889124e-05
4.6620873e-05
4.9990763e-05
4.9231033e-05
4.2749989e-05
3.2132989e-05
1.9567867e-05
1.1990434e-05
8.9402447e-06
2.7289419e-05
6.953295e-05
0.00010572584
0.00010812355
8.2602089e-05
6.1050273e-05
6.9332832e-05
9.9701969e-05
0.00012139401
0.0001301054
0.00012243037
0.00010676488
8.8379864e-05
7.2665657e-05
6.2543986e-05
5.7702029e-05
5.5609547e-05
5.2991055e-05
4.7971354e-05
3.9992694e-05
2.9906749e-05
2.0692116e-05
1.998141e-05
2.5007766e-05
6.5344522e-05
8.2179423e-05
7.0820618e-05
5.4809017e-05
6.016689e-05
9.295964e-05
0.0001181102
0.00013321067
0.00013487843
0.0001279415
0.00011714012
0.00010596393
9.6725859e-05
8.945899e-05
8.2554406e-05
7.416389e-05
6.2461475e-05
4.6976025e-05
3.0449764e-05
2.1542322e-05
1.2792678e-05
2.5196791e-05
5.0068726e-05
4.9813606e-05
4.5665758e-05
4.5342356e-05
7.9000339e-05
0.00010666989
0.00012705933
0.00013654997
0.00013788055
0.00013451167
0.00012831222
0.00012058737
0.00011144978
9.9700711e-05
8.370606e-05
6.3060599e-05
4.0204542e-05
2.7865962e-05
1.3849108e-05
2.0809374e-05
2.7121393e-05
3.3957536e-05
3.0012723e-05
5.5719516e-05
8.4098646e-05
0.0001078016
0.00012359435
0.00013110318
0.00013338906
0.00013142697
0.00012500409
0.00011383396
9.7460347e-05
7.5948868e-05
4.8457336e-05
2.7527816e-05
1.3443534e-05
1.7508302e-05
2.8714545e-05
2.0318645e-05
2.5577205e-05
4.8634538e-05
7.1592754e-05
9.1355378e-05
0.00010200695
0.00010527286
0.00010208081
9.1861808e-05
7.7949706e-05
5.926214e-05
4.7049587e-05
2.1448535e-05
1.6577887e-05
5.7184065e-06
1.5718312e-05
2.4997137e-05
4.5340184e-05
5.8473469e-05
6.4671736e-05
6.3045425e-05
5.2835915e-05
4.2864175e-05
2.6604885e-05
1.0072276e-05
6.20237e-06
1.3861196e-05
1.5956498e-05
1.6875364e-05
1.4981238e-05
1.1356998e-05
2.5076707e-05
4.062104e-05
4.7805512e-05
4.4674345e-05
3.8308421e-05
2.8380418e-05
1.9855179e-05
1.1874922e-05
2.8127078e-05
7.8917534e-05
0.00010470477
0.00012293786
0.0001354274
0.00013853765
0.0001333912
0.00012039436
9.8707185e-05
7.1084904e-05
4.3397306e-05
2.9808156e-05
6.2015959e-06
7.1720467e-06
1.2972908e-05
7.0768248e-05
0.00011311944
0.00014222094
0.00016071766
0.00017089276
0.00017488681
0.00017412369
0.00016949718
0.00016011653
0.00014453369
0.00012074712
8.9522892e-05
6.2596666e-05
2.8034454e-05
1.2389755e-05
2.0624268e-05
1.7678907e-05
7.1402117e-05
0.0001128684
0.00014345275
0.0001614674
0.00017049496
0.00017440106
0.00017602507
0.00017671171
0.00017633362
0.00017332114
0.0001653215
0.00014926065
0.00012280281
9.1408889e-05
5.5017246e-05
2.1049545e-05
2.1088569e-05
1.649972e-05
1.8148566e-05
6.2684447e-05
0.00010042304
0.00012732774
0.00014092268
0.00014558707
0.00014652959
0.00014772587
0.00015093922
0.00015660735
0.00016342564
0.00016869176
0.00016910103
0.00016122647
0.00014180463
0.00011189533
7.7079054e-05
3.7553902e-05
3.0180293e-05
3.1120905e-05
1.9264872e-05
1.443418e-05
4.4295741e-05
7.0970453e-05
9.1917994e-05
0.00010240797
0.00010434514
0.00010174037
9.9539873e-05
0.00010136922
0.00010916625
0.00012240849
0.0001385193
0.00015329687
0.0001624929
0.00016251389
0.00015019942
0.00012440632
9.0848528e-05
5.4579244e-05
4.0497458e-05
4.7072606e-05
4.1656089e-05
2.0025426e-05
2.282508e-05
4.0146574e-05
5.8791146e-05
7.0182417e-05
7.5082909e-05
7.425048e-05
7.1230695e-05
7.1918733e-05
7.5423242e-05
7.9683112e-05
8.726402e-05
0.00010690267
0.00013000666
0.00014808213
0.00015598495
0.00015066862
0.00013029627
9.8726735e-05
6.5904346e-05
4.8417957e-05
6.0552884e-05
6.4402354e-05
5.044749e-05
1.5703733e-05
2.3388193e-05
3.017131e-05
4.7676676e-05
6.2882841e-05
7.5583794e-05
8.3930578e-05
8.5912263e-05
8.4494446e-05
7.9212888e-05
7.3034232e-05
6.6613037e-05
6.6844983e-05
7.9748625e-05
0.00010278219
0.00012664542
0.00014221815
0.00014431203
0.00013036142
0.00010241333
7.1412339e-05
5.329125e-05
6.9158208e-05
8.3333713e-05
7.778985e-05
3.5886761e-05
2.4054607e-05
5.1128636e-05
7.8531511e-05
9.9080138e-05
0.0001117299
0.0001180878
0.00011889368
0.00011349262
0.0001016765
8.4360615e-05
6.5754219e-05
5.4820872e-05
5.8363182e-05
7.629037e-05
0.00010138977
0.00012247056
0.00013178804
0.00012495585
0.00010225551
7.3514172e-05
5.4570566e-05
7.3622198e-05
9.6381753e-05
9.8872743e-05
6.2264821e-05
2.039564e-05
6.0267008e-06
4.2176074e-05
8.6089237e-05
0.00011819379
0.00013703792
0.00014592669
0.00014733345
0.00014237181
0.0001311941
0.00011401528
9.1973673e-05
6.7129523e-05
4.5698236e-05
3.7792612e-05
4.9152375e-05
7.3105063e-05
9.8028565e-05
0.00011395239
0.00011433901
9.7965262e-05
7.2579527e-05
5.2516105e-05
7.5471368e-05
0.0001046595
0.00011422245
8.247993e-05
3.7949774e-05
1.498166e-05
7.0848538e-05
0.00012017116
0.00015045028
0.00016486145
0.00016851523
0.00016452622
0.00015419486
0.00013791261
0.00011609598
9.0061322e-05
6.3609134e-05
4.1879079e-05
2.6044284e-05
2.6461315e-05
4.5206141e-05
7.1245927e-05
9.2141007e-05
9.8844328e-05
8.9365561e-05
6.7431455e-05
4.9023579e-05
7.6641308e-05
0.00011034951
0.00012464906
9.7957362e-05
4.9600902e-05
1.2667914e-05
0.00010179161
0.00014980679
0.00017429281
0.0001818975
0.00017900137
0.00016909028
0.00015305599
0.00013106057
0.00010399912
7.3582166e-05