/*--------------------------------*- C++ -*----------------------------------*\
| =========                 |                                                 |
| \\      /  F ield         | OpenFOAM: The Open Source CFD Toolbox           |
|  \\    /   O peration     | Version:  2406                                  |
|   \\  /    A nd           | Website:  www.openfoam.com                      |
|    \\/     M anipulation  |                                                 |
\*---------------------------------------------------------------------------*/
FoamFile
{
    version     2.0;
    format      ascii;
    arch        "LSB;label=32;scalar=64";
    class       volScalarField;
    location    "500";
    object      p;
}
// * * * * * * * * * * * * * * * * * * * * * * * * * * * * * * * * * * * * * //

dimensions      [0 2 -2 0 0 0 0];

internalField   nonuniform List<scalar> 
150387
(
0.0043623063
0.0055951282
0.0045746651
0.0041964424
0.0039875409
0.0038622004
0.0044847087
0.0043178537
0.008591748
0.007154637
0.0054766334
0.003699656
0.0025942724
0.0017747971
0.0014030275
0.0014000953
0.0016854102
0.0023636608
0.0031209999
0.0037875218
0.0043783482
0.0096886885
0.0071319794
0.0040909678
0.0016575427
-0.00023334567
-0.0015203553
-0.0022294478
-0.0023669378
-0.0020468292
-0.0013626374
-0.00035595007
0.00081597882
0.00212198
0.0033182541
0.0047707507
0.0054499483
0.010688986
0.0095878791
0.0065077754
0.0027850145
-0.00052064195
-0.0031036809
-0.0049339564
-0.0060307672
-0.0065042057
-0.0064386756
-0.0059240784
-0.0050290183
-0.0037858189
-0.002298592
-0.00062342619
0.0010683236
0.0027144491
0.0045289971
0.006139687
0.011291144
0.010677482
0.0067895348
0.0024036845
-0.0016763577
-0.0049734464
-0.0074144435
-0.0090683921
-0.010029974
-0.01040355
-0.010261664
-0.0096696927
-0.0086779381
-0.0073231855
-0.0056829152
-0.0038357189
-0.0019827266
-0.0003096026
0.0020022075
0.0044727589
0.0061086469
0.010862706
0.007187217
0.0022364186
-0.0023844834
-0.0062765972
-0.0092553215
-0.011412181
-0.012861855
-0.013715808
-0.014041814
-0.013874802
-0.013258844
-0.012236208
-0.010837199
-0.0091228106
-0.0071794633
-0.0052230768
-0.00356182
-0.0012964953
0.0017818181
0.0043760476
0.0061639708
0.010809155
0.0071251937
0.002278285
-0.0025210677
-0.0066878891
-0.010081394
-0.012696495
-0.014660921
-0.016093674
-0.017012687
-0.017426296
-0.017325979
-0.016726973
-0.015677264
-0.014226945
-0.012441293
-0.010408249
-0.008360435
-0.0067103055
-0.0044759402
-0.0013625643
0.0019638447
0.0047612598
0.0054250961
0.008417611
0.0062656809
0.0024561415
-0.0018975468
-0.0060238942
-0.0096500302
-0.012740092
-0.015261991
-0.017331869
-0.018946477
-0.020103457
-0.020759012
-0.020821643
-0.020257283
-0.019135137
-0.017554275
-0.015621245
-0.013438647
-0.011250251
-0.0095949725
-0.0073015332
-0.004249074
-0.00079772744
0.0023889574
0.0045130991
0.0060911399
0.0043535127
0.0008766701
-0.0030895048
-0.0069464533
-0.010483811
-0.013631784
-0.016393144
-0.018838998
-0.020950841
-0.022683694
-0.023915245
-0.024391875
-0.023956453
-0.022718934
-0.02089417
-0.018689577
-0.016254352
-0.013883504
-0.012114917
-0.0096863179
-0.0066739297
-0.0031996142
0.00020834051
0.0031867164
0.0048786576
0.0050913858
0.0030269768
-0.00026573121
-0.0039634476
-0.007618854
-0.010967247
-0.014024368
-0.016873025
-0.019579836
-0.022153398
-0.024589575
-0.026764347
-0.028016766
-0.027871773
-0.026485772
-0.02427431
-0.021641635
-0.018826065
-0.016248855
-0.014259075
-0.011674333
-0.0086333882
-0.0051902551
-0.0015775586
0.0017864499
0.0040963952
0.0053587651
0.003948845
0.0014221803
-0.0020955851
-0.0058269751
-0.009478479
-0.012855564
-0.015985975
-0.018971212
-0.021891208
-0.024773042
-0.027559289
-0.030392755
-0.0326543
-0.032667801
-0.030744198
-0.027780419
-0.024460852
-0.021093406
-0.018357475
-0.016017121
-0.01323443
-0.010116722
-0.0067069525
-0.0030260426
0.0005013513
0.002921433
0.0048112368
0.0027784146
-0.00010072473
-0.0038316019
-0.0076096087
-0.011254053
-0.014638975
-0.017856261
-0.021051765
-0.024354113
-0.027853482
-0.03169109
-0.035862809
-0.039341519
-0.039474549
-0.036110679
-0.03150898
-0.027054406
-0.023064425
-0.020131409
-0.017364193
-0.014352986
-0.011132934
-0.0077100806
-0.0040171173
-0.0004254605
0.0020884225
0.0032941539
0.0043828287
0.0019421954
-0.0013150003
-0.0052348891
-0.0090678093
-0.012705323
-0.016093751
-0.019382465
-0.022766514
-0.026416213
-0.030536284
-0.035711422
-0.042548297
-0.049475505
-0.048831204
-0.042478988
-0.035279495
-0.029178857
-0.024808887
-0.021429387
-0.018253043
-0.015014638
-0.011687626
-0.0082264995
-0.0045678887
-0.0010541662
0.0015259416
0.0031582986
0.0040827629
0.0015741023
-0.0021514423
-0.0062346577
-0.01013409
-0.013774985
-0.017154155
-0.020456602
-0.023901111
-0.027636561
-0.031943915
-0.037981897
-0.048384893
-0.057019077
-0.05481989
-0.046678029
-0.037387663
-0.030623632
-0.02581569
-0.022059059
-0.018596232
-0.015196532
-0.011784487
-0.0082814143
-0.0046726863
-0.0012191399
0.001351792
0.0026701121
0.0041350771
0.001538993
-0.0024337893
-0.0067569383
-0.010744978
-0.014415076
-0.017764275
-0.020996009
-0.024299385
-0.027718478
-0.031367066
-0.036513241
-0.045086191
-0.052903238
-0.053039584
-0.045296319
-0.036745823
-0.030410623
-0.025733615
-0.021918604
-0.018363759
-0.014899919
-0.011438881
-0.0079197717
-0.0043462013
-0.0011044416
0.0015029065
0.0026531536
0.0049483836
0.0020833588
-0.0021103354
-0.006713935
-0.010829009
-0.014563208
-0.017870438
-0.020963481
-0.02396286
-0.026761164
-0.029262846
-0.033072587
-0.038710162
-0.043328684
-0.044049431
-0.039602226
-0.033663151
-0.02870142
-0.024660514
-0.021065857
-0.017591316
-0.014154909
-0.010691713
-0.0071890883
-0.0036808389
-0.00064203019
0.0016118928
0.0025844336
0.0057699337
0.0029458168
-0.0011432904
-0.0060226563
-0.010298675
-0.014152003
-0.017437149
-0.020374912
-0.023016543
-0.025098371
-0.026503642
-0.029427106
-0.032813453
-0.035221703
-0.035297532
-0.032914699
-0.029582037
-0.026146398
-0.022876891
-0.019639315
-0.01635189
-0.013010234
-0.0095824447
-0.0061265235
-0.0027287252
4.4065675e-05
0.001686756
0.0025137592
0.0067015811
0.0043497941
0.0005030483
-0.0045591615
-0.0090257285
-0.013108282
-0.01642863
-0.019269898
-0.021587979
-0.023036053
-0.023781608
-0.026024309
-0.028270506
-0.029664052
-0.02960512
-0.027995498
-0.025684963
-0.023265683
-0.020663355
-0.017804957
-0.014751954
-0.011542403
-0.0081900998
-0.0048069757
-0.0015705145
0.00091162874
0.0021561972
0.0063025851
0.0027429968
-0.0022565948
-0.0069016616
-0.011299888
-0.014798527
-0.017663562
-0.019728119
-0.020695865
-0.020950756
-0.022766371
-0.02449604
-0.025572562
-0.025695252
-0.024788927
-0.023126268
-0.020970462
-0.018547519
-0.015897372
-0.013003961
-0.0099270076
-0.0066594765
-0.003328133
-0.00024843296
0.0020020866
0.002673659
0.0080786617
0.0057489284
0.00089010215
-0.0038237304
-0.0085642838
-0.012447067
-0.015515618
-0.017460677
-0.018161016
-0.017998855
-0.019548625
-0.020998497
-0.02195612
-0.022262219
-0.021852894
-0.020808107
-0.019252938
-0.017248285
-0.014835825
-0.012053395
-0.0089009531
-0.0054726672
-0.0019253069
0.0011036963
0.002926042
0.0029306578
0.009239013
0.0048337067
0.00022247362
-0.0047797209
-0.0092063555
-0.012735343
-0.014777794
-0.015357207
-0.014884637
-0.016287865
-0.017589608
-0.018479272
-0.018871863
-0.018717962
-0.018019126
-0.016805484
-0.015096576
-0.012889518
-0.010230082
-0.0070980281
-0.0035730963
5.0169089e-05
0.0032670854
0.0042222938
0.010452999
0.0085428484
0.004966415
7.0762434e-06
-0.0049373489
-0.0091605506
-0.011602149
-0.012220066
-0.011565994
-0.012919716
-0.014167634
-0.015038333
-0.015476815
-0.01544005
-0.014894198
-0.013818648
-0.012183458
-0.0099563762
-0.007096315
-0.0037399889
5.9630094e-05
0.003471515
0.0059836188
0.0049654911
0.011599438
0.0094810864
0.0055549215
0.00034153544
-0.0046642718
-0.0078246039
-0.0087264649
-0.0079987331
-0.0093593289
-0.010605977
-0.011478152
-0.011928187
-0.011913035
-0.011388304
-0.010305735
-0.0086009457
-0.0062163581
-0.0032075184
0.00021388565
0.0035798267
0.0061691941
0.0073066165
0.012313432
0.010291994
0.0062090216
0.00064418809
-0.0034275603
-0.0049683787
-0.0042899355
-0.0056674761
-0.0069081226
-0.0077679145
-0.0081981665
-0.0081528534
-0.0075756533
-0.0063811389
-0.0045652403
-0.0021565129
0.00076058063
0.0036285634
0.0061294453
0.0071316841
0.013005932
0.011870598
0.0060545065
0.0012946849
-0.0010989935
-0.00067746454
-0.0020187812
-0.0031835058
-0.00396291
-0.0043032191
-0.0041533481
-0.003496753
-0.0022990711
-0.00062959877
0.0015112987
0.0041558676
0.006142601
0.007516559
0.013502432
0.010402465
0.005337018
0.0020858558
0.0019701433
0.0008679534
2.3117463e-06
-0.00053230057
-0.00069176771
-0.00040382366
0.0002663463
0.0013580879
0.0027771108
0.0044384384
0.0060402822
0.0056728938
0.0072065863
0.0037027079
0.0031192067
0.0026105986
0.002144876
0.0018828954
0.0018855959
0.002186208
0.0027730448
0.0038785898
0.0046198205
0.0055417777
0.0033945109
0.0031955698
0.0031290064
0.0032219357
0.0039237044
0.0036767059
0.005861349
0.0060022822
0.0056611364
0.0041275311
0.0038119346
0.0036632335
0.0036545837
0.0042005045
0.004326813
0.0080632557
0.0051552948
0.0037192019
0.0021574092
0.0012499222
0.00050470606
0.00034800792
0.00056559453
0.001024878
0.0019321563
0.0028384066
0.0039141755
0.0046663332
0.0050173738
0.0082906478
0.0080524219
0.0043833956
0.0016460569
-0.00044686853
-0.0020650397
-0.0030765578
-0.003524117
-0.0034147216
-0.0028715656
-0.0019990973
-0.00079349697
0.00045841637
0.0019410917
0.0028226322
0.0049276656
0.004657316
0.0091363601
0.0068316481
0.003960282
0.00015027354
-0.0027526914
-0.0049464604
-0.0064714089
-0.0073083734
-0.007592965
-0.0073815568
-0.006749567
-0.0057683708
-0.0044334987
-0.0028900024
-0.001127499
0.00060498199
0.0022976283
0.0035525888
0.0057584873
0.0094409543
0.0075361012
0.0041365366
-0.00034586462
-0.0040742605
-0.0069397003
-0.0089845322
-0.010345793
-0.01109105
-0.011303521
-0.011040228
-0.010357603
-0.0093105887
-0.0079152966
-0.0062793889
-0.0044691454
-0.0027454306
-0.0010281315
0.0015516331
0.0035741806
0.005910971
0.0090604327
0.0074420607
0.004504648
-0.00064742491
-0.0047508462
-0.0081693765
-0.010759029
-0.01267751
-0.013936988
-0.014644219
-0.014841322
-0.014563917
-0.013863009
-0.012791396
-0.01137035
-0.0096816876
-0.0078232696
-0.0060466595
-0.0043644611
-0.0020525773
0.0012309637
0.003253332
0.0057247228
0.0083654223
0.0041722482
-0.00037667527
-0.0046604913
-0.0083719012
-0.011438169
-0.013824868
-0.015629684
-0.016976934
-0.017820027
-0.018160278
-0.017973842
-0.017284808
-0.016170862
-0.014687382
-0.01292455
-0.011002167
-0.0091765589
-0.0075061046
-0.0051919203
-0.002027894
0.0011960919
0.0042633299
0.0026861414
0.0077371856
0.0044544904
0.0011477443
-0.0032871051
-0.007300751
-0.010812375
-0.013805018
-0.01632151
-0.01832813
-0.019883628
-0.021005789
-0.021612842
-0.021578974
-0.02088092
-0.019642937
-0.017983966
-0.016044809
-0.013972667
-0.012039808
-0.01031056
-0.0079707181
-0.0048665541
-0.0016054203
0.0016835476
0.0037972982
0.0060228124
0.0035939283
-0.00027765528
-0.0042796413
-0.0081126674
-0.011581444
-0.014682609
-0.01746546
-0.02000902
-0.022234879
-0.023987072
-0.025205354
-0.02553686
-0.024835036
-0.023360343
-0.021362201
-0.019092021
-0.016743713
-0.014632107
-0.01273572
-0.010279178
-0.007153006
-0.0038566054
-0.00033456733
0.002443625
0.0041255161
0.0056489771
0.004368745
0.0019323476
-0.0018827578
-0.005652865
-0.0093139986
-0.012641163
-0.015690755
-0.018551032
-0.021304836
-0.024016244
-0.026606233
-0.02872658
-0.029812469
-0.029191432
-0.027377513
-0.024842582
-0.022069465
-0.019311095
-0.016967156
-0.014768639
-0.012066576
-0.0089173188
-0.0056098589
-0.0019250654
0.0014636683
0.0040261069
0.0050478555
0.0030758501
0.00035195629
-0.0036036297
-0.0073258215
-0.010930905
-0.014240056
-0.0173694
-0.020439586
-0.023556351
-0.02674882
-0.030051595
-0.03330191
-0.035455774
-0.034612626
-0.031973279
-0.02851496
-0.024976303
-0.021689053
-0.01903783
-0.0163539
-0.013418519
-0.010206516
-0.0068913776
-0.0032046826
0.00029989155
0.0024678937
0.0046214239
0.001777362
-0.0012379984
-0.0052642905
-0.0089603836
-0.012511194
-0.01580954
-0.019032943
-0.022351897
-0.025925827
-0.029846121
-0.034418132
-0.039018952
-0.042159194
-0.041352757
-0.03737759
-0.032222683
-0.027665488
-0.023791314
-0.020656161
-0.017506409
-0.014321512
-0.011029766
-0.0076742992
-0.0040448506
-0.00038071479
0.0016703877
0.0028474619
0.004227047
0.00070068642
-0.0025182428
-0.0065800905
-0.010297116
-0.013819937
-0.017122345
-0.02042751
-0.023961189
-0.027937134
-0.032665527
-0.038888367
-0.043139943
-0.049026539
-0.048729874
-0.042796281
-0.035744454
-0.029899185
-0.025453324
-0.021745439
-0.018174529
-0.014775241
-0.011412518
-0.0080267845
-0.0044613062
-0.0010187717
0.001100487
0.0029890399
0.002988903
0.0005412375
-0.0035158082
-0.0075233749
-0.011280091
-0.014791895
-0.018072507
-0.021371482
-0.024943727
-0.028982593
-0.033978458
-0.040436227
-0.049566056
-0.056861571
-0.054571045
-0.045232636
-0.037269036
-0.031004811
-0.026135463
-0.022056753
-0.018273651
-0.014768076
-0.011366277
-0.0079491896
-0.004465254
-0.00098589622
0.0011508425
0.0024816023
0.0036606004
0.00029261068
-0.0038049051
-0.0080237298
-0.011824926
-0.015362612
-0.018585571
-0.021764885
-0.025131773
-0.028802763
-0.032974675
-0.037964767
-0.046551807
-0.053271934
-0.052822165
-0.043227491
-0.036035041
-0.030329553
-0.025649438
-0.021586222
-0.017824075
-0.014329976
-0.010912477
-0.0074999195
-0.0039284872
-0.0010539154
0.0013587511
0.0026061131
0.0043843128
0.00091925805
-0.0035438226
-0.0079735223
-0.011870921
-0.015462925
-0.018603017
-0.021573275
-0.024554088
-0.027571067
-0.030606648
-0.034699031
-0.039434689
-0.043059032
-0.042037669
-0.038071617
-0.032924335
-0.028371141
-0.024262634
-0.020498276
-0.016926547
-0.013517266
-0.010109176
-0.0067238321
-0.0031560934
-0.00043055248
0.0013886951
0.0027715368
0.0053688008
0.0017200824
-0.0026444767
-0.0073055922
-0.011334228
-0.015016623
-0.018090578
-0.020823398
-0.023386356
-0.025680435
-0.027613884
-0.030487121
-0.033576992
-0.035535519
-0.035116734
-0.032619744
-0.029227817
-0.025778697
-0.022351687
-0.019000874
-0.015679924
-0.012377848
-0.0089929091
-0.0056301378
-0.0021340127
0.00037769797
0.001673111
0.0064520715
0.0032619888
-0.0010669127
-0.0058754909
-0.010099594
-0.013950843
-0.017027663
-0.019564662
-0.021810714
-0.023367177
-0.024571769
-0.026717268
-0.02878373
-0.030089425
-0.029947004
-0.028221665
-0.025842132
-0.0231382
-0.020298772
-0.017338982
-0.014255207
-0.011050863
-0.0076944184
-0.0043568071
-0.0010428393
0.0012179063
0.0020445893
0.0047691113
0.0010431605
-0.0036589236
-0.0080541327
-0.012163238
-0.01534196
-0.017877346
-0.019833383
-0.020778635
-0.021527837
-0.023134538
-0.024659976
-0.025681543
-0.025807653
-0.024889177
-0.023233541
-0.02105248
-0.018525058
-0.015799124
-0.012858212
-0.0097015295
-0.0063343838
-0.0029332832
0.00023607451
0.0023209694
0.0024353003
0.0076084286
0.0038809123
-0.00065785227
-0.0051085276
-0.009520126
-0.013002463
-0.015655843
-0.017461759
-0.018036283
-0.018469326
-0.019739117
-0.020942736
-0.021816263
-0.022100191
-0.021692556
-0.020656734
-0.019136289
-0.017127436
-0.014669316
-0.011828914
-0.008648496
-0.0051683366
-0.0015115972
0.0010255156
0.0028727451
0.0027447345
0.0083231667
0.007726738
0.0033604361
-0.0011897435
-0.0058731763
-0.0098863315
-0.012823937
-0.014647665
-0.015070024
-0.015312101
-0.016407133
-0.017445688
-0.018229633
-0.018578017
-0.018413414
-0.017721915
-0.016519093
-0.014849341
-0.012660339
-0.0098998498
-0.0066839705
-0.0031390531
0.00044709429
0.0035134039
0.0040562386
0.0088882615
0.006528315
0.0036451734
-0.0014111799
-0.0058785491
-0.0092770436
-0.011377232
-0.011801262
-0.011982675
-0.013043413
-0.014045793
-0.014816485
-0.015210393
-0.015166849
-0.014631342
-0.01356591
-0.011911823
-0.0096706824
-0.0067942079
-0.0034204381
0.00062495406
0.0028778823
0.0058917371
0.010857709
0.0073326176
0.0042197703
-0.0011282094
-0.0050363819
-0.0075831568
-0.0081346852
-0.0083745433
-0.0094844577
-0.010513589
-0.011290226
-0.011679419
-0.011632933
-0.011098797
-0.010009639
-0.0083338059
-0.0059720282
-0.0029411275
0.0006293107
0.0032437999
0.005509157
0.0056114067
0.011428368
0.0076275597
0.0040864101
-3.4054918e-05
-0.0033610528
-0.0042589035
-0.0046586507
-0.0058470546
-0.0069016071
-0.00767907
-0.0080560399
-0.0079834169
-0.0074156818
-0.0062483418
-0.0045100317
-0.0021918909
0.00082947652
0.0030575996
0.0054584134
0.0052717578
0.011786959
0.0089452243
0.00380175
0.00097776528
-0.00019366535
-0.00077167581
-0.0020517608
-0.0031268843
-0.0038839547
-0.0042230694
-0.0040403622
-0.003353965
-0.002147006
-0.00059383537
0.0015022312
0.004446315
0.0056372486
0.0056311871
0.0092715725
0.0085856386
0.0042129635
0.0025660094
0.0017672429
0.0006898921
-3.4586327e-05
-0.00050378198
-0.00060770878
-0.00019741021
0.00035866069
0.0014738574
0.0024772295
0.0038610788
0.0066889423
0.0052397803
0.0039061104
0.0031118822
0.002421902
0.0019894764
0.0017546236
0.0017551256
0.0019486511
0.0027243474
0.0035469913
0.0044482225
0.0037919358
0.0032553465
0.0031767299
0.0029850002
0.0031835917
0.0035793972
0.0049373422
0.0052406325
0.005231975
0.0034917779
0.0032872774
0.0032351836
0.0033244493
0.0039416705
0.0040948521
0.0065395062
0.0039249982
0.0027843107
0.0013974255
0.0005840667
-0.00013306256
-0.00016420057
0.00015765024
0.00069271591
0.0016828416
0.0026306741
0.0038485079
0.0048959017
0.0049790745
0.0068911267
0.0066609459
0.0031179784
0.00055757152
-0.0014072597
-0.0028962509
-0.0038065183
-0.0041297784
-0.0039017392
-0.0032582908
-0.0023064023
-0.0010418366
0.00022286367
0.0016832703
0.0024553151
0.0046807271
0.0043558052
0.0075310595
0.0051742692
0.0026233191
-0.0010501688
-0.0037902606
-0.0058012712
-0.0071811381
-0.0079037498
-0.0081110146
-0.007834696
-0.0071449712
-0.0061249139
-0.0047677503
-0.0032245671
-0.0014901292
0.00026173493
0.0019893846
0.0029330963
0.0051996898
0.0078094884
0.0058959025
0.0028776531
-0.0014621348
-0.0050765822
-0.007815128
-0.0097496971
-0.011000092
-0.011653359
-0.011786873
-0.011459187
-0.010733583
-0.0096702087
-0.0082857595
-0.006686224
-0.0049334
-0.0032167312
-0.0014105223
0.0011832104
0.002816421
0.0051733032
0.0071383393
0.0057660205
0.0033524202
-0.0016988574
-0.0056760513
-0.0089851418
-0.011513883
-0.013318257
-0.014516781
-0.01514532
-0.015272831
-0.014941316
-0.014210458
-0.013139529
-0.011749328
-0.010118261
-0.0083325398
-0.0065799451
-0.0047760479
-0.0025073489
0.00064206721
0.0023098793
0.0049437219
0.0071315988
0.0032961063
-0.0011432379
-0.0053338082
-0.0089920002
-0.012021329
-0.014398123
-0.016247881
-0.017548478
-0.018335209
-0.018607419
-0.018352926
-0.017625616
-0.016513149
-0.015064828
-0.013367523
-0.011522906
-0.0097173501
-0.0079183049
-0.005657588
-0.0026235471
0.00044165553
0.0034352563
0.0014478792
0.0070967458
0.0037767073
0.00072318204
-0.0037109284
-0.0077073775
-0.011179593
-0.01413853
-0.016606181
-0.018651196
-0.020332576
-0.021504852
-0.02209201
-0.021989478
-0.021237391
-0.01999386
-0.018367684
-0.016492862
-0.01449451
-0.012566286
-0.010706167
-0.0084332568
-0.0054612871
-0.0023260781
0.00091373433
0.002846243
0.0058552053
0.003121908
-0.00091359675
-0.0050153845
-0.0088449762
-0.012252819
-0.015280547
-0.01798973
-0.020450147
-0.022649223
-0.024487713
-0.025730241
-0.025999191
-0.025219507
-0.023728411
-0.021762183
-0.019555934
-0.01727497
-0.015134497
-0.013093292
-0.010719896
-0.0077382822
-0.00450862
-0.0010197652
0.0016251889
0.0032163378
0.0055383502
0.0040074213
0.0014599189
-0.0025386866
-0.0064005035
-0.010098241
-0.013431432
-0.016481692
-0.019349831
-0.022123208
-0.024834266
-0.027395377
-0.029488386
-0.030425898
-0.029634924
-0.027782905
-0.025276567
-0.0225685
-0.019874648
-0.017432454
-0.01509168
-0.012526136
-0.0094688578
-0.0061637693
-0.0025502665
0.00085674821
0.0034376184
0.0049538143
0.0027468958
-3.723196e-05
-0.0041637717
-0.0079614957
-0.011589827
-0.014898832
-0.018030681
-0.021118847
-0.024276787
-0.027555785
-0.030943477
-0.034298167
-0.036130638
-0.035084254
-0.032418806
-0.029028757
-0.025558408
-0.022305256
-0.019455421
-0.016721986
-0.013878284
-0.010705561
-0.0073716915
-0.003770204
-0.00020742543
0.0018046022
0.004432817
0.0013767002
-0.0016487121
-0.0057817952
-0.0095098218
-0.01305706
-0.016342448
-0.019563124
-0.02289713
-0.026502804
-0.030471166
-0.035118361
-0.039643337
-0.042500372
-0.041622246
-0.037788869
-0.032830503
-0.028360217
-0.024448654
-0.021091219
-0.0178999
-0.014741616
-0.011458844
-0.0080881358
-0.0045500889
-0.00084221544
0.0010469067
0.002438548
0.0039308735
0.00019969066
-0.0029845741
-0.0071013319
-0.010816125
-0.014308716
-0.017584171
-0.020881987
-0.024438431
-0.028443383
-0.03321004
-0.039367602
-0.043532734
-0.048807942
-0.048488827
-0.042920721
-0.036468911
-0.03069075
-0.026094076
-0.022190624
-0.018560713
-0.015146763
-0.011785933
-0.0084014537
-0.0048934458
-0.0014975763
0.00057454102
0.002668488
0.0024133379
-7.8892979e-06
-0.0041003808
-0.0080831217
-0.011811936
-0.015268586
-0.018512402
-0.021810694
-0.025433188
-0.029516546
-0.034676423
-0.040891954
-0.049793368
-0.055852057
-0.05390248
-0.045121385
-0.037807621
-0.031677699
-0.026698687
-0.02247141
-0.018633504
-0.015098937
-0.011703138
-0.0082882693
-0.0048329121
-0.0013560832
0.00071535495
0.0021541699
0.0030782322
-0.00041687125
-0.0045084421
-0.0086435257
-0.012401001
-0.015866419
-0.019049857
-0.022246876
-0.025687963
-0.0294323
-0.033860426
-0.038727579
-0.04726689
-0.053064166
-0.052412672
-0.043360409
-0.03652668
-0.030907142
-0.026128457
-0.021974232
-0.018164735
-0.014649338
-0.011238229
-0.0078262896
-0.0042381098
-0.0013998866
0.0011703555
0.0023879939
0.0036681814
0.00017366679
-0.0043808932
-0.0086660451
-0.012516673
-0.016024459
-0.019124232
-0.022124157
-0.025168428
-0.028234244
-0.031585716
-0.035618041
-0.04001549
-0.043363858
-0.042363245
-0.038591718
-0.03353179
-0.028941248
-0.024733055
-0.020902282
-0.017293096
-0.013871692
-0.010462951
-0.0070604541
-0.0034418393
-0.00071991751
0.0011250911
0.0025829333
0.0047009276
0.00087278032
-0.0036063586
-0.0081153223
-0.012078552
-0.015657294
-0.018684838
-0.021442977
-0.023988754
-0.026268648
-0.028575948
-0.031367593
-0.034323056
-0.036292668
-0.035971147
-0.033509342
-0.029998108
-0.026417471
-0.022890844
-0.019482719
-0.016132235
-0.012817748
-0.0094152429
-0.0060002879
-0.002409337
0.00014400092
0.0015183352
0.0056640218
0.00221668
-0.0021819236
-0.0068463002
-0.010975926
-0.014695127
-0.017688911
-0.020254481
-0.022299954
-0.023943124
-0.025487928
-0.027508351
-0.029471806
-0.030795784
-0.03074036
-0.029100425
-0.026659725
-0.023873311
-0.020946054
-0.017935464
-0.014824087
-0.011599562
-0.0082048699
-0.0047779269
-0.0013582493
0.00098180614
0.0018565113
0.003380096
-0.00022145759
-0.0048536893
-0.0091047019
-0.013009477
-0.016096251
-0.018551537
-0.020262806
-0.021381489
-0.022392881
-0.023858849
-0.025277559
-0.026278772
-0.026441618
-0.02551873
-0.023813875
-0.021629615
-0.01913945
-0.016426568
-0.013490447
-0.010324436
-0.0069142128
-0.0034020367
-0.0001222643
0.0021462082
0.0023184511
0.0064130017
0.0023935536
-0.0020674084
-0.0063352485
-0.0105131
-0.013823001
-0.016318097
-0.017883734
-0.018653739
-0.019309254
-0.020428636
-0.021514418
-0.022351302
-0.022647875
-0.022241524
-0.021161443
-0.019543891
-0.017515251
-0.015102698
-0.01229202
-0.0091031183
-0.0055942165
-0.0018844254
0.00055556908
0.0027698159
0.0026466651
0.0072730659
0.0060503111
0.0017619951
-0.0025690775
-0.0070436744
-0.010765252
-0.013499995
-0.015098936
-0.015697387
-0.016144578
-0.017080743
-0.017991138
-0.018726562
-0.019090573
-0.018965652
-0.018311329
-0.01711006
-0.015361985
-0.013128094
-0.010373803
-0.0071504192
-0.0036078109
-7.9443347e-06
0.0029276903
0.0037304466
0.0072410759
0.0045613678
0.0020747925
-0.0027956814
-0.006911561
-0.0099877895
-0.011810705
-0.012431386
-0.01281361
-0.01371705
-0.014587711
-0.015301255
-0.015696097
-0.015687652
-0.015208879
-0.014187649
-0.012592466
-0.010350988
-0.0074825054
-0.0041364037
-7.6314516e-05
0.001843895
0.0055262132
0.0088969015
0.0053341452
0.0026370554
-0.0023772433
-0.0058129787
-0.0080020175
-0.0087537453
-0.0091831339
-0.01014896
-0.011058997
-0.011788329
-0.012181346
-0.01216803
-0.011694604
-0.010680528
-0.0090630907
-0.0067674863
-0.0037712836
-0.00025400444
0.0021159972
0.0046089264
0.004569623
0.0093912509
0.0053958587
0.0025642166
-0.00095084188
-0.0037483217
-0.0047979551
-0.0053995577
-0.0064678489
-0.0074261772
-0.0081735868
-0.0085643391
-0.0085242048
-0.0080218215
-0.0069592024
-0.0053546072
-0.0031299029
-0.00017410284
0.0018054422
0.0044564794
0.0042245602
0.009579008
0.0068108922
0.0024019355
0.00058681755
-0.00062423858
-0.0013509485
-0.0025621202
-0.0035922245
-0.0043687394
-0.0047700792
-0.0046672535
-0.0040595292
-0.0029453886
-0.0014681078
0.00054004623
0.0033432305
0.0046946445
0.0042997817
0.0065111629
0.0065654102
0.0037656562
0.0022185196
0.0012952456
0.00025582778
-0.00045312584
-0.00096348077
-0.0011483314
-0.00074741637
-0.00026371974
0.00073408878
0.0014857958
0.0030264703
0.0060274545
0.004266019
0.0038434768
0.0029671556
0.0021813586
0.0017556193
0.0014926713
0.0014342087
0.0015124055
0.0023283113
0.0028834407
0.0038898265
0.0029092489
0.0030763582
0.0030071121
0.0027609803
0.0029414421
0.0032475993
0.0039761116
0.0042318164
0.0043982521
0.0027190663
0.0026392354
0.0027140666
0.0029297316
0.0036687449
0.0039036443
0.0050620943
0.0024245831
0.0015639641
0.00034473325
-0.0003320745
-0.00095241359
-0.00084358255
-0.00039614437
0.0002486232
0.0013552153
0.0023902485
0.0037485427
0.0049470829
0.0047835559
0.0052638592
0.005011041
0.0016042554
-0.00078455979
-0.0026097259
-0.0039733789
-0.0047421246
-0.0049279733
-0.0045740968
-0.0038233386
-0.0027796423
-0.0014257009
-0.00011984518
0.001370315
0.0020599696
0.0042147493
0.0039516111
0.0057300705
0.003180639
0.00092580759
-0.0025712935
-0.005099253
-0.00692209
-0.008122978
-0.0087076197
-0.008809768
-0.0084509029
-0.0077050135
-0.0066546989
-0.0052735882
-0.0037255552
-0.0019921788
-0.00020125056
0.0014423349
0.0020927167
0.004440619
0.0059523514
0.003914273
0.0012574303
-0.0028870249
-0.0063148452
-0.0088728444
-0.010669379
-0.011807973
-0.012352645
-0.012401028
-0.012016036
-0.011259601
-0.01020199
-0.0088424713
-0.0072825169
-0.0055774574
-0.0038542897
-0.0020733261
0.00050094754
0.0018270019
0.0042225991
0.0054270964
0.0038170182
0.0018339133
-0.0030906358
-0.0068673611
-0.010018823
-0.012395309
-0.014090792
-0.015219295
-0.015775404
-0.015827482
-0.015448134
-0.01470513
-0.01366383
-0.012328523
-0.010765263
-0.0090456616
-0.0073147271
-0.0054780808
-0.0032898263
-0.00019773521
0.0011784231
0.003945045
0.0056501947
0.0020685194
-0.0023015302
-0.0063593512
-0.0098940867
-0.012804564
-0.015095913
-0.01685347
-0.018145561
-0.018924981
-0.019158497
-0.018856727
-0.018115034
-0.017037751
-0.015655876
-0.014038982
-0.012263915
-0.010487861
-0.0086329111
-0.0064192386
-0.0034535787
-0.00053870469
0.0024706591
0.0005361039
0.0064884581
0.0027968521
-0.00010942314
-0.004596241
-0.0085831902
-0.012024374
-0.014917824
-0.017324089
-0.019323262
-0.020954347
-0.022150021
-0.022733563
-0.022570021
-0.021777527
-0.020553571
-0.018986247
-0.017187607
-0.015248436
-0.013334498
-0.011404323
-0.0091495452
-0.0062482007
-0.0032704479
-1.4765811e-05
0.0017884293
0.0056386509
0.0025863962
-0.0017012403
-0.0059582296
-0.0098458161
-0.013242479
-0.016227595
-0.018892727
-0.021319039
-0.023503303
-0.025320519
-0.026562806
-0.02676125
-0.025883715
-0.024372122
-0.02243925
-0.020289776
-0.018045527
-0.015882563
-0.013752139
-0.011378522
-0.00846023
-0.0053688577
-0.0018880139
0.00062107113
0.0023360134
0.0053999781
0.0036381394
0.00089987
-0.003360456
-0.0073474089
-0.011105563
-0.014454476
-0.017507972
-0.020382651
-0.0231727
-0.025909801
-0.028472189
-0.030532971
-0.031338217
-0.030423678
-0.028532493
-0.02603443
-0.023359406
-0.020672097
-0.018160283
-0.015710442
-0.013121714
-0.010119079
-0.0069237099
-0.0033431189
5.3359919e-05
0.0026395048
0.0047658984
0.0023137549
-0.00056625359
-0.0049164317
-0.0088060423
-0.012484609
-0.015810383
-0.018960732
-0.022085486
-0.025300555
-0.02866192
-0.032095435
-0.035459951
-0.03704457
-0.035904392
-0.033236426
-0.029883769
-0.026430443
-0.023143817
-0.020171304
-0.017297148
-0.014430719
-0.01129401
-0.0080397226
-0.0045158499
-0.00092327292
0.00099576933
0.0041439207
0.00084789178
-0.0022393085
-0.0065118985
-0.010275504
-0.013836913
-0.017122317
-0.020360448
-0.023742654
-0.027425233
-0.031481588
-0.03613779
-0.040474205
-0.043061579
-0.042147425
-0.03849065
-0.033712904
-0.029295699
-0.025314186
-0.021794363
-0.018466608
-0.015265269
-0.01198916
-0.0086647862
-0.0052054816
-0.0014776984
0.00033130935
0.0020083402
0.0034875396
-0.00046304412
-0.0036675521
-0.0078318481
-0.011532281
-0.015002344
-0.018261353
-0.021575274
-0.025198882
-0.029300201
-0.034157633
-0.040152551
-0.04396985
-0.04855887
-0.048279402
-0.043293618
-0.037334757
-0.031681952
-0.026956439
-0.022875626
-0.019104075
-0.015623259
-0.012263438
-0.0089117861
-0.0054672874
-0.0020996066
-2.4287257e-05
0.0022574435
0.0016702767
-0.00073466319
-0.0048974648
-0.0088382884
-0.012521875
-0.015923571
-0.019139418
-0.022461724
-0.026187683
-0.030404372
-0.035722392
-0.041588404
-0.049729814
-0.054615108
-0.053008568
-0.045286917
-0.038570566
-0.032576914
-0.027526573
-0.02311539
-0.019138431
-0.015540038
-0.012143863
-0.0087515555
-0.005339376
-0.0018255116
0.00018224174
0.0017984899
0.0023602608
-0.001326615
-0.0054243918
-0.0094676868
-0.013143063
-0.016533714
-0.019682401
-0.022921792
-0.026496369
-0.030412143
-0.035027485
-0.039757379
-0.04755745
-0.052522254
-0.051801701
-0.043744913
-0.03731175
-0.031783253
-0.026901605
-0.022592227
-0.018663434
-0.015095278
-0.01168018
-0.0082791545
-0.0046851556
-0.0018515542
0.00075731307
0.0021225664
0.0027815981
-0.00083967595
-0.0054413424
-0.0095910965
-0.013330291
-0.016746435