/*--------------------------------*- C++ -*----------------------------------*\
| =========                 |                                                 |
| \\      /  F ield         | OpenFOAM: The Open Source CFD Toolbox           |
|  \\    /   O peration     | Version:  2406                                  |
|   \\  /    A nd           | Website:  www.openfoam.com                      |
|    \\/     M anipulation  |                                                 |
\*---------------------------------------------------------------------------*/
FoamFile
{
    version     2.0;
    format      ascii;
    arch        "LSB;label=32;scalar=64";
    class       volScalarField;
    location    "100";
    object      epsilon;
}
// * * * * * * * * * * * * * * * * * * * * * * * * * * * * * * * * * * * * * //

dimensions      [0 2 -3 0 0 0 0];

internalField   nonuniform List<scalar> 
150387
(
0.00072564961
3.5092207e-05
4.1852139e-05
4.4978741e-05
4.3297865e-05
3.4321431e-05
2.1952844e-05
1.0387067e-05
1.9024694e-05
1.6685673e-05
2.4521557e-05
3.7869666e-05
4.5834511e-05
5.1185274e-05
5.2989779e-05
5.1707895e-05
4.6952036e-05
3.9054367e-05
3.0702726e-05
2.1864662e-05
1.4670338e-05
1.6568602e-05
2.5752288e-05
3.2852539e-05
3.8050099e-05
4.339149e-05
4.7496554e-05
5.0298773e-05
5.1402971e-05
5.0890785e-05
4.8858788e-05
4.5951206e-05
4.2067718e-05
3.7344861e-05
3.2987374e-05
2.409246e-05
1.2278014e-05
3.9490854e-05
2.5080574e-05
3.3588692e-05
3.8265338e-05
4.2728177e-05
4.6808347e-05
5.0496349e-05
5.3755848e-05
5.6257845e-05
5.7587901e-05
5.7734038e-05
5.6476505e-05
5.4155671e-05
5.0919736e-05
4.70601e-05
4.255725e-05
3.6109725e-05
2.7286925e-05
1.5860666e-05
6.784284e-05
2.8018998e-05
3.8180361e-05
4.2454744e-05
4.6184908e-05
4.9907264e-05
5.3533929e-05
5.7085994e-05
6.0476225e-05
6.3621094e-05
6.6100889e-05
6.7721635e-05
6.6484228e-05
6.3197385e-05
5.9095679e-05
5.4675217e-05
5.003481e-05
4.4597073e-05
3.8509747e-05
3.1614717e-05
1.7679051e-05
2.3358247e-05
3.8066684e-05
4.4384015e-05
4.8726345e-05
5.2625441e-05
5.6153788e-05
5.9470322e-05
6.291969e-05
6.6723998e-05
7.1625365e-05
7.677143e-05
8.017955e-05
7.859184e-05
7.3511828e-05
6.7241151e-05
6.1569596e-05
5.6283966e-05
5.0899188e-05
4.504349e-05
3.8649331e-05
3.0047146e-05
1.3874335e-05
2.0194446e-05
3.4222375e-05
4.399852e-05
4.996265e-05
5.4712621e-05
5.8635316e-05
6.1843869e-05
6.4752515e-05
6.7952861e-05
7.2345108e-05
7.9503843e-05
8.7187999e-05
9.2833824e-05
9.0702398e-05
8.3674139e-05
7.5343226e-05
6.7752894e-05
6.1627339e-05
5.6019034e-05
5.0259567e-05
4.3938149e-05
3.5661469e-05
2.2001766e-05
6.9285725e-06
3.4443245e-05
3.1831619e-05
4.2122533e-05
4.9558291e-05
5.5628939e-05
6.0650621e-05
6.4696102e-05
6.7629296e-05
6.9871902e-05
7.2354623e-05
7.6883909e-05
8.4750697e-05
9.4675963e-05
0.00010250342
0.00010004199
9.138043e-05
8.1543906e-05
7.2608963e-05
6.5928608e-05
6.0309516e-05
5.4772795e-05
4.8760933e-05
4.1584804e-05
3.0446565e-05
1.7625732e-05
2.0149991e-05
3.7257157e-05
4.7073166e-05
5.4661592e-05
6.1261924e-05
6.7063332e-05
7.1919743e-05
7.4938017e-05
7.5947904e-05
7.6574499e-05
7.9000526e-05
8.5348349e-05
9.5465323e-05
0.00010388251
0.00010226292
9.3835658e-05
8.4129508e-05
7.5520835e-05
6.9135497e-05
6.393822e-05
5.8797668e-05
5.3103653e-05
4.6623415e-05
3.7744815e-05
2.4560597e-05
6.4939867e-06
2.8449929e-05
4.2013702e-05
5.141837e-05
5.9553699e-05
6.7584335e-05
7.5671284e-05
8.2121611e-05
8.5315044e-05
8.4469817e-05
8.156232e-05
7.9508208e-05
8.0968901e-05
8.774924e-05
9.4744054e-05
9.5119405e-05
8.9641505e-05
8.2673264e-05
7.6484058e-05
7.1694794e-05
6.7337717e-05
6.2685109e-05
5.7332091e-05
5.1097114e-05
4.372451e-05
3.275656e-05
1.6833136e-05
1.4620314e-05
3.7576844e-05
4.6427343e-05
5.5300882e-05
6.4663983e-05
7.5305068e-05
8.5892616e-05
9.4556931e-05
9.8411694e-05
9.5202028e-05
8.8307405e-05
8.1627731e-05
7.7898347e-05
7.7786717e-05
8.1743418e-05
8.3519575e-05
8.1930393e-05
7.9513815e-05
7.724336e-05
7.4638979e-05
7.1171392e-05
6.6768375e-05
6.1422004e-05
5.520786e-05
4.833677e-05
4.0929565e-05
3.249575e-05
3.0457187e-05
4.4687599e-05
4.978819e-05
5.8539907e-05
6.9858917e-05
8.303422e-05
9.6845914e-05
0.0001086647
0.00011349345
0.0001069329
9.5449962e-05
8.502609e-05
8.1024416e-05
7.5715542e-05
7.4252244e-05
7.5357876e-05
7.5785989e-05
7.7894548e-05
8.0046432e-05
7.9902353e-05
7.6734888e-05
7.1439595e-05
6.53964e-05
5.880444e-05
5.1963103e-05
4.663442e-05
4.6441454e-05
2.3473526e-05
3.792725e-05
4.9132555e-05
5.1975582e-05
6.0709788e-05
7.3261118e-05
8.8353795e-05
0.00010486601
0.00011930417
0.0001243829
0.00011435734
9.9332719e-05
8.7473296e-05
9.2267399e-05
9.1129303e-05
8.0850624e-05
7.7480512e-05
7.415742e-05
8.0041191e-05
8.6126872e-05
8.7844194e-05
8.447437e-05
7.7536291e-05
6.9296722e-05
6.1611199e-05
5.4326451e-05
4.8930883e-05
5.021493e-05
2.1790573e-05
3.2311104e-05
4.7387701e-05
5.273245e-05
6.114229e-05
7.2786142e-05
8.6987966e-05
0.00010240843
0.00011540249
0.00011915047
0.00010956114
9.540577e-05
8.4024988e-05
9.2911701e-05
0.00013058246
5.0882683e-05
7.6905364e-05
7.4867053e-05
8.4675318e-05
9.4004054e-05
9.6916997e-05
9.2439548e-05
8.3394776e-05
7.277773e-05
6.3272126e-05
5.5307639e-05
4.9051994e-05
4.3975967e-05
1.870656e-05
3.3256615e-05
4.7877907e-05
5.2611411e-05
6.0348588e-05
6.9937644e-05
8.1476988e-05
9.3112691e-05
0.00010215948
0.00010446705
9.7350995e-05
8.6761136e-05
8.0510557e-05
9.034772e-05
9.1950763e-05
9.0957516e-05
8.3761346e-05
7.8586859e-05
8.8625524e-05
9.9882925e-05
0.00010367052
9.8032219e-05
8.7017736e-05
7.4618864e-05
6.3591528e-05
5.5058936e-05
4.9725477e-05
5.2250395e-05
2.4071621e-05
3.4426841e-05
4.8776466e-05
5.1425645e-05
5.8347629e-05
6.6060789e-05
7.4667233e-05
8.3144925e-05
8.9283828e-05
9.0973482e-05
8.7006089e-05
8.0616775e-05
7.8872082e-05
8.4067563e-05
8.4900911e-05
8.3862896e-05
8.14468e-05
7.9525075e-05
8.6875385e-05
9.5997397e-05
9.8844419e-05
9.3599106e-05
8.342888e-05
7.1687739e-05
6.1209083e-05
5.2782418e-05
4.716317e-05
4.9362602e-05
2.3247427e-05
2.5270576e-05
4.3075348e-05
4.8245519e-05
5.5237298e-05
6.2096023e-05
6.8477317e-05
7.4531142e-05
7.9416078e-05
8.1841748e-05
8.2000171e-05
8.2458501e-05
8.6446339e-05
9.1585838e-05
9.1289951e-05
8.7727501e-05
8.3503134e-05
8.125102e-05
8.4035089e-05
8.8613607e-05
8.9598972e-05
8.5167038e-05
7.6924319e-05
6.7129469e-05
5.7920666e-05
4.9483591e-05
4.1928413e-05
3.7355884e-05
2.7620212e-05
1.3999268e-05
3.2727038e-05
4.339626e-05
5.1251454e-05
5.7972696e-05
6.3703303e-05
6.8613457e-05
7.2964534e-05
7.7136529e-05
8.186741e-05
8.9120092e-05
9.9054663e-05
0.00010784261
0.00010671027
9.921382e-05
9.0551555e-05
8.4120181e-05
8.1660206e-05
8.1633717e-05
8.0571807e-05
7.648474e-05
6.9799178e-05
6.221085e-05
5.4165779e-05
4.5630782e-05
3.5674809e-05
2.241984e-05
2.0195122e-05
3.6661218e-05
4.6618845e-05
5.3539239e-05
5.9370941e-05
6.4328466e-05
6.9004191e-05
7.4720502e-05
8.2849569e-05
9.4328143e-05
0.00010915763
0.00012240355
0.00012009135
0.00010833456
9.5635799e-05
8.5715602e-05
7.956521e-05
7.6067545e-05
7.3039201e-05
6.9097767e-05
6.3751442e-05
5.7254804e-05
4.9907191e-05
4.118143e-05
2.9006495e-05
1.6060371e-05
1.1208486e-05
2.9257807e-05
4.0974736e-05
4.8835521e-05
5.503401e-05
6.0437635e-05
6.5678409e-05
7.2093909e-05
8.1545058e-05
9.4048642e-05
0.0001096093
0.0001237487
0.00012091225
0.00010858506
9.5402239e-05
8.4573445e-05
7.6803569e-05
7.1778122e-05
6.7789952e-05
6.3565057e-05
5.8463165e-05
5.2367131e-05
4.518528e-05
3.5819876e-05
2.3702885e-05
8.6015734e-06
1.810908e-05
3.3241917e-05
4.3598335e-05
5.0383209e-05
5.6279978e-05
6.1884822e-05
6.810842e-05
7.7004952e-05
8.8240133e-05
0.00010137538
0.00011308758
0.00011102447
0.00010128029
9.029371e-05
8.0535581e-05
7.3141377e-05
6.7836544e-05
6.3271985e-05
5.8599736e-05
5.3286695e-05
4.7082003e-05
3.8993767e-05
2.6431404e-05
2.0674663e-05
7.3789642e-06
2.5821551e-05
3.7400172e-05
4.5156022e-05
5.1383394e-05
5.7137091e-05
6.2964324e-05
7.0055097e-05
7.9085428e-05
8.8809444e-05
9.7107767e-05
9.6244112e-05
9.0015185e-05
8.2117482e-05
7.4519086e-05
6.860933e-05
6.3519058e-05
5.8597198e-05
5.3444729e-05
4.7734772e-05
4.0918922e-05
3.0999927e-05
1.6418699e-05
9.1586247e-06
1.479218e-05
3.0306877e-05
3.8574675e-05
4.5376995e-05
5.1339083e-05
5.6739529e-05
6.2300202e-05
6.8747465e-05
7.5485692e-05
8.1096724e-05
8.1314359e-05
7.7936003e-05
7.2940218e-05
6.8044816e-05
6.3310932e-05
5.8429047e-05
5.3166945e-05
4.7570441e-05
4.1126869e-05
3.2805238e-05
2.1836725e-05
8.6520927e-06
1.7842113e-05
2.9350284e-05
3.7147045e-05
4.4118567e-05
4.9520557e-05
5.429854e-05
5.8954018e-05
6.3306897e-05
6.7165256e-05
6.837801e-05
6.7322954e-05
6.4824889e-05
6.1432893e-05
5.7226788e-05
5.225605e-05
4.6665158e-05
3.983165e-05
3.1267186e-05
2.2074533e-05
1.1374602e-05
1.3812593e-05
2.3629966e-05
3.4489452e-05
4.0605899e-05
4.5417681e-05
4.9718467e-05
5.3586576e-05
5.7118141e-05
5.9114796e-05
5.9253938e-05
5.7770646e-05
5.4782155e-05
5.0323459e-05
4.481119e-05
3.7748573e-05
2.7660603e-05
1.7253085e-05
9.5992105e-06
1.1985376e-05
2.1391135e-05
2.7954966e-05
3.3687925e-05
4.00729e-05
4.6411696e-05
5.1860899e-05
5.5094331e-05
5.5914066e-05
5.4260128e-05
4.9690635e-05
4.247036e-05
3.3318687e-05
2.4795543e-05
2.2152948e-05
1.242555e-05
9.4557138e-06
1.6707264e-05
2.8433813e-05
4.3001679e-05
5.660272e-05
6.2634438e-05
6.3544949e-05
5.8940138e-05
4.8891336e-05
3.0973884e-05
2.0055028e-05
1.1066246e-05
2.0671618e-05
2.6341654e-05
3.0481699e-05
3.0585304e-05
2.8361358e-05
3.2566004e-05
4.5225485e-05
6.1040893e-05
5.2416127e-05
6.1368608e-05
6.3667712e-05
6.1478912e-05
5.1956335e-05
5.2445547e-05
3.5588776e-05
3.5209438e-05
2.7726091e-05
3.313965e-05
4.0045929e-05
4.5174516e-05
4.7945841e-05
4.806173e-05
4.6059538e-05
4.1507293e-05
3.5595623e-05
2.9598597e-05
2.5147769e-05
2.4898805e-05
4.2931231e-05
5.1599854e-05
2.6154813e-05
3.2247044e-05
3.6645798e-05
3.9965448e-05
4.2530548e-05
4.4346246e-05
4.5391759e-05
4.5623432e-05
4.495876e-05
4.317931e-05
4.0526582e-05
3.7243214e-05
3.3572086e-05
3.0687348e-05
2.4772095e-05
3.5190649e-05
5.2259012e-05
3.1198572e-05
3.5148291e-05
3.9263057e-05
4.223822e-05
4.4258575e-05
4.5801017e-05
4.7292087e-05
4.8939073e-05
5.0412412e-05
5.0889655e-05
4.9450364e-05
4.6847683e-05
4.3841807e-05
4.0637058e-05
3.7132614e-05
3.2000248e-05
2.695966e-05
2.6478177e-05
4.9992947e-05
3.1296275e-05
3.6608807e-05
4.0641399e-05
4.3382193e-05
4.5338966e-05
4.6876553e-05
4.8608848e-05
5.1184666e-05
5.4987738e-05
5.9218458e-05
6.1325574e-05
5.8915421e-05
5.4350522e-05
4.9805333e-05
4.598381e-05
4.266645e-05
3.9066266e-05
3.4692642e-05
3.0273707e-05
2.9519188e-05
4.6810865e-05
2.7658802e-05
3.5297177e-05
4.0710996e-05
4.3868568e-05
4.5960702e-05
4.7523569e-05
4.9104059e-05
5.1557943e-05
5.6031757e-05
6.3313985e-05
7.1836855e-05
7.6227504e-05
7.1832837e-05
6.3793647e-05
5.6084479e-05
5.0431203e-05
4.6572646e-05
4.3527457e-05
4.0290819e-05
3.5830342e-05
2.9714242e-05
2.6222022e-05
2.6869083e-05
3.273482e-05
3.9628178e-05
4.3956006e-05
4.6766178e-05
4.8684725e-05
5.0140502e-05
5.1769257e-05
5.4798824e-05
6.1114878e-05
7.184735e-05
8.5583716e-05
9.3033793e-05
8.6106941e-05
7.3715143e-05
6.2439634e-05
5.4335281e-05
4.9429155e-05
4.637345e-05
4.3808132e-05
4.0404546e-05
3.4470699e-05
2.4630047e-05
3.4141909e-05
4.2431489e-05
3.184008e-05
3.7927815e-05
4.3467507e-05
4.7592548e-05
5.0794075e-05
5.3182616e-05
5.4599333e-05
5.5628566e-05
5.8088404e-05
6.4587238e-05
7.7129363e-05
9.4798452e-05
0.00010475239
9.6207775e-05
8.059892e-05
6.682478e-05
5.7171226e-05
5.1525423e-05
4.8336387e-05
4.6130496e-05
4.3654144e-05
3.9435847e-05
3.2476785e-05
2.8617187e-05
2.6532356e-05
3.4564944e-05
4.173408e-05
4.7504942e-05
5.2749708e-05
5.7712608e-05
6.1533542e-05
6.2844145e-05
6.1925682e-05
6.1644325e-05
6.541313e-05
7.5831123e-05
9.2622953e-05
0.00010252855
9.4952938e-05
8.0304354e-05
6.7370261e-05
5.844453e-05
5.3115367e-05
5.0001825e-05
4.7909602e-05
4.5879123e-05
4.2800048e-05
3.7056021e-05
2.746594e-05
2.3783598e-05
4.2625596e-05
3.1133318e-05
3.8577381e-05
4.5567594e-05
5.2602539e-05
6.0699709e-05
6.9257914e-05
7.5728677e-05
7.6870861e-05
7.2087667e-05
6.6489319e-05
6.4822851e-05
6.9443294e-05
7.982222e-05
8.6253862e-05
8.2225305e-05
7.3059524e-05
6.4687243e-05
5.8805347e-05
5.4915205e-05
5.2099786e-05
4.9792217e-05
4.7649829e-05
4.5042899e-05
4.0745926e-05
3.3696434e-05
2.7997577e-05
4.4703278e-05
3.7043316e-05
4.2116647e-05
4.9438629e-05
5.9074496e-05
7.1650803e-05
8.5817738e-05
9.69287e-05
9.8094334e-05
8.6893075e-05
7.383924e-05
6.6014222e-05
6.5323538e-05
6.7982979e-05
7.0450728e-05
6.9013976e-05
6.5433693e-05
6.250128e-05
6.0564708e-05
5.8546605e-05
5.5814764e-05
5.2645195e-05
4.9619483e-05
4.6749129e-05
4.347413e-05
4.0512926e-05
4.3239207e-05
4.5376795e-05
4.213279e-05
4.4938828e-05
5.3059304e-05
6.5899013e-05
8.3951436e-05
0.00010532974
0.00012262142
0.0001235586
0.0001036869
8.1893561e-05
6.9943493e-05
7.3828023e-05
7.2656282e-05
7.0587095e-05
6.5066861e-05
6.252064e-05
6.3916846e-05
6.6119449e-05
6.6042809e-05
6.2704954e-05
5.7450598e-05
5.2374037e-05
4.8303743e-05
4.5076979e-05
4.4754836e-05
5.5060189e-05
7.6142281e-05
5.3911388e-05
4.4652665e-05
4.6576697e-05
5.5310635e-05
7.0216358e-05
9.2322663e-05
0.00011908507
0.00014051691
0.00014032029
0.00011345947
8.5991463e-05
7.5054185e-05
9.5519389e-05
0.00011877795
0.00010467098
7.2362313e-05
6.4437719e-05
6.9779559e-05
7.6894609e-05
7.8413431e-05
7.3222321e-05
6.4598421e-05
5.6113503e-05
4.9868388e-05
4.5580404e-05
4.4591241e-05
5.6773999e-05
5.7715289e-05
4.0889849e-05
4.2709282e-05
4.6806302e-05
5.4810801e-05
6.8391379e-05
8.8056135e-05
0.00011110724
0.00012901901
0.00012827092
0.00010556888
8.2073166e-05
7.4649244e-05
0.00011384977
0.00035086228
0.00015884549
7.3834826e-05
6.7481933e-05
7.8394145e-05
9.1066143e-05
9.3825547e-05
8.5378163e-05
7.2202168e-05
5.9874832e-05
5.1103139e-05
4.5584663e-05
4.2703085e-05
4.2089543e-05
4.2622362e-05
4.5922673e-05
4.4855394e-05
4.6458215e-05
5.2411085e-05
6.2018306e-05
7.5293678e-05
8.9773986e-05
9.9888352e-05
9.8851342e-05
8.6118663e-05
7.2501451e-05
7.0630763e-05
0.00010237339
0.00017707727
0.00012701819
7.3800376e-05
6.9786034e-05
8.3025159e-05
9.854144e-05
0.00010153961
9.1251358e-05
7.5559174e-05
6.1262347e-05
5.1170253e-05
4.5071039e-05
4.4233503e-05
5.5482233e-05
5.9777784e-05
5.2369374e-05
4.4944577e-05
4.5600221e-05
4.9679861e-05
5.5625494e-05
6.3588082e-05
7.1825044e-05
7.7328951e-05
7.7461261e-05
7.2788973e-05
6.8102538e-05
6.7750637e-05
7.4234095e-05
7.4982782e-05
7.166515e-05
6.6377565e-05
6.8044425e-05
7.7799307e-05
8.9074082e-05
9.1242037e-05
8.2885117e-05
7.0125229e-05
5.8090719e-05
4.91991e-05
4.3090097e-05
4.0700674e-05
5.5692176e-05
6.7821587e-05
6.3903694e-05
4.0862607e-05
4.387437e-05
4.742236e-05
5.1088493e-05
5.549477e-05
6.0266955e-05
6.4140214e-05
6.6477384e-05
6.8502762e-05
7.2710938e-05
8.0268013e-05
8.6326599e-05
8.3276743e-05
7.5366395e-05
6.8487126e-05
6.6626355e-05
7.0052255e-05
7.5227444e-05
7.5867351e-05
7.0425938e-05
6.1877331e-05
5.3397896e-05
4.6421711e-05
4.0162758e-05
3.4681944e-05
4.4533484e-05
4.2262522e-05
3.4280406e-05
4.1234295e-05
4.5506113e-05
4.830013e-05
5.0954389e-05
5.4004147e-05
5.7619279e-05
6.2531042e-05
7.0441283e-05
8.3679189e-05
0.00010167924
0.00011463209
0.00010806962
9.0486165e-05
7.5572132e-05
6.7178261e-05
6.4554264e-05
6.4672638e-05
6.3716616e-05
6.0066734e-05
5.4698775e-05
4.9156448e-05
4.3542628e-05
3.6826817e-05
2.8592029e-05
3.01282e-05
2.8046775e-05
3.7660275e-05
4.3340601e-05
4.6338519e-05
4.8445206e-05
5.0850645e-05
5.4629674e-05
6.1486219e-05
7.3679768e-05
9.3860743e-05
0.00012109352
0.00014171083
0.00013119248
0.00010416563
8.1672616e-05
6.7983692e-05
6.1155667e-05
5.8047634e-05
5.5846826e-05
5.3190184e-05
4.9800288e-05
4.5752939e-05
4.0563929e-05
3.3340448e-05
2.4543571e-05
2.890905e-05
2.4390249e-05
3.3172781e-05
4.0108508e-05
4.4201895e-05
4.6579239e-05
4.887449e-05
5.2615315e-05
5.9809561e-05
7.2775705e-05
9.3499467e-05
0.00012084363
0.00014171972
0.00013146443
0.00010471195
8.1620425e-05
6.6725002e-05
5.8371174e-05
5.4088042e-05
5.1534255e-05
4.9303905e-05
4.6602254e-05
4.2825116e-05
3.7154356e-05
2.9990238e-05
2.9205653e-05
3.5317265e-05
3.4308887e-05
2.4791307e-05
3.5012894e-05
4.1035164e-05
4.435641e-05
4.6894005e-05
5.0284506e-05
5.6354068e-05
6.7165641e-05
8.358006e-05
0.00010430507
0.00012011073
0.00011305992
9.3412095e-05
7.5375023e-05
6.2872592e-05
5.5457938e-05
5.1474603e-05
4.9064714e-05
4.6907081e-05
4.4042761e-05
3.952256e-05
3.2182883e-05
2.2385127e-05
2.2404559e-05
2.9733533e-05
2.9639853e-05
3.6297884e-05
4.0909929e-05
4.4123659e-05
4.7320267e-05
5.1908248e-05
5.9388947e-05
7.0316559e-05
8.350373e-05
9.3186304e-05
8.9491585e-05
7.7868963e-05
6.6262379e-05
5.764958e-05
5.2433284e-05
4.9414623e-05
4.7222074e-05
4.4756681e-05
4.1094017e-05
3.5208492e-05
2.707858e-05
2.3341104e-05
2.7886058e-05
3.0318499e-05
3.5197474e-05
3.969083e-05
4.3369472e-05
4.7054477e-05
5.1855219e-05
5.8284081e-05
6.5688474e-05
7.1021607e-05
6.9622974e-05
6.3906608e-05
5.7583545e-05
5.2766946e-05
4.9626326e-05
4.7372683e-05
4.4992269e-05
4.1550985e-05
3.6424782e-05
2.9893644e-05
2.8931669e-05
3.5085831e-05
2.9302797e-05
2.7226325e-05
3.248264e-05
3.7715076e-05
4.1440864e-05
4.5083525e-05
4.8967239e-05
5.3025043e-05
5.6088611e-05
5.6113383e-05
5.3981146e-05
5.1240239e-05
4.8847084e-05
4.6776797e-05
4.445292e-05
4.1063009e-05
3.5555403e-05
2.9261069e-05
2.9787933e-05
3.8885393e-05
2.3186324e-05
2.4374771e-05
3.0898031e-05
3.4107054e-05
3.7901184e-05
4.1545097e-05
4.5030169e-05
4.7778798e-05
4.8911507e-05
4.8678328e-05
4.7527762e-05
4.5636469e-05
4.2855327e-05
3.900026e-05
3.4453156e-05
2.5977267e-05
2.5391903e-05
3.7593004e-05
3.9959599e-05
2.9941074e-05
2.5316527e-05
2.9580234e-05
3.5622178e-05
4.2115154e-05
4.7564162e-05
5.0455433e-05
5.0944351e-05
4.9010261e-05
4.4330568e-05
3.7147231e-05
2.9975351e-05
3.1449977e-05
2.7008467e-05
2.7493062e-05
2.5263575e-05
3.6613929e-05
5.0233506e-05
6.2860842e-05
6.8602842e-05
6.9579477e-05
6.5482727e-05
5.7128309e-05
4.1383172e-05
3.8708173e-05
4.1246479e-05
8.4390823e-05
7.2037038e-05
7.4205868e-05
7.4946401e-05
7.3693132e-05
7.1521718e-05
7.477148e-05
6.8684594e-05
8.2272573e-05
8.426769e-05
8.1074674e-05
6.954914e-05
7.1845225e-05
5.4288724e-05
5.9373549e-05
3.3506418e-05
3.7758623e-05
4.4562134e-05
5.0308284e-05
5.317666e-05
5.3180433e-05
5.0928947e-05
4.5654863e-05
3.9002294e-05
3.2729386e-05
2.9090293e-05
3.3357856e-05
6.0477741e-05
7.6707183e-05
3.2227351e-05
3.6837588e-05
4.0142518e-05
4.2999913e-05
4.531899e-05
4.7173328e-05
4.8428806e-05
4.8864623e-05
4.8182733e-05
4.5998034e-05
4.2826702e-05
3.9251285e-05
3.5708699e-05
3.3734506e-05
2.9583925e-05
5.1815408e-05
7.9116017e-05
3.5725716e-05
3.8242524e-05
4.2225209e-05
4.489236e-05
4.6658447e-05
4.8185465e-05
5.0118188e-05
5.2666218e-05
5.5142323e-05
5.587102e-05
5.3632445e-05
4.9963674e-05
4.6161718e-05
4.2555924e-05
3.9040277e-05
3.4291463e-05
3.0690787e-05
3.7143617e-05
7.4129549e-05
3.5105121e-05
3.8990612e-05
4.3002031e-05
4.568235e-05
4.7441965e-05
4.8960292e-05
5.1184223e-05
5.5188723e-05
6.1462002e-05
6.845325e-05
7.1426017e-05
6.7153511e-05
5.9992921e-05
5.3389531e-05
4.8390892e-05
4.4600656e-05
4.100585e-05
3.7026833e-05
3.4349116e-05
4.1140947e-05
6.4545088e-05
3.1249446e-05
3.7287997e-05
4.2684341e-05
4.5878108e-05
4.7878768e-05
4.934695e-05
5.1172849e-05
5.4783025e-05
6.2088208e-05
7.4170168e-05
8.8464535e-05
9.5175642e-05
8.7085603e-05
7.3805477e-05
6.1957447e-05
5.3767558e-05
4.8786963e-05
4.5511061e-05
4.2515201e-05
3.866468e-05
3.4493235e-05
3.7904069e-05
3.1827108e-05
3.487314e-05
4.1389348e-05
4.5888374e-05
4.8820239e-05
5.0781393e-05
5.2232373e-05
5.4189957e-05
5.8793173e-05
6.9149865e-05
8.7375966e-05
0.00011104294
0.00012304975
0.00011010282
8.9069683e-05
7.1010679e-05
5.8820869e-05
5.1953661e-05
4.8337621e-05
4.5927686e-05
4.3025238e-05
3.796789e-05
3.0594868e-05
5.7852091e-05
6.2034049e-05
3.4812249e-05
3.9749296e-05
4.5436362e-05
5.0072112e-05
5.3906427e-05
5.6722293e-05
5.8076026e-05
5.8957369e-05
6.2574629e-05
7.3351425e-05
9.5085739e-05
0.00012609149
0.00014276474
0.00012634623
9.9560122e-05
7.7099331e-05
6.2358104e-05
5.4223759e-05
5.0211469e-05
4.8055414e-05
4.6036176e-05
4.2534384e-05
3.7286773e-05
4.0854951e-05
3.0525811e-05
3.6728981e-05
4.3768479e-05
5.0312568e-05
5.7027478e-05
6.3852134e-05
6.8908672e-05
6.9896151e-05
6.7425173e-05
6.656757e-05
7.3167247e-05
9.1786529e-05
0.000121422
0.00013769552
0.0001231644
9.7980658e-05
7.6865246e-05
6.3278516e-05
5.5742239e-05
5.1841449e-05
4.9681059e-05
4.7975915e-05
4.5449385e-05
4.0564094e-05
3.3375756e-05
4.0969392e-05
6.0115612e-05
3.4321474e-05
4.0733729e-05
4.8309992e-05
5.7261176e-05
6.8711153e-05
8.1393863e-05
9.0834878e-05
9.1372856e-05
8.2388522e-05
7.2962047e-05
7.100123e-05
8.0209243e-05
9.907931e-05
0.00010929718
0.00010092556
8.5011886e-05
7.1422516e-05
6.2787792e-05
5.7711749e-05
5.4368369e-05
5.1804442e-05
4.9673584e-05
4.7357533e-05
4.3667366e-05
3.8392067e-05
3.9385346e-05
6.1385394e-05
4.0412797e-05
4.470428e-05
5.344307e-05
6.6812508e-05
8.579167e-05
0.00010800334
0.00012515073
0.00012538824
0.00010560718
8.3982203e-05
7.2036828e-05
7.2341616e-05
7.8509661e-05
8.2462734e-05
7.8927555e-05
7.2188825e-05
6.7317237e-05
6.4952433e-05
6.2962956e-05
5.9845101e-05
5.5865554e-05
5.2122729e-05
4.9009071e-05
4.6083487e-05
4.5097699e-05
5.6906519e-05
5.8123967e-05
4.6158505e-05
4.8203914e-05
5.8760612e-05
7.7631004e-05
0.0001060856
0.00014070004
0.00016794198
0.00016721022
0.00013293377
9.7280351e-05
7.7746481e-05
8.1661571e-05
8.1646264e-05
7.9123208e-05
7.1292496e-05
6.7796032e-05
6.9948321e-05
7.4085348e-05
7.5061607e-05
7.0885885e-05
6.3532069e-05
5.6292018e-05
5.0961539e-05
4.7640072e-05
4.9452079e-05
6.8909484e-05
0.00011548952
7.0570078e-05
4.8830971e-05
5.035921e-05
6.2400737e-05
8.5279123e-05
0.00012094772
0.00016503317
0.00019932907
0.00019621047
0.00015019287
0.00010537811
8.5248845e-05
0.00011164879
0.00014713769
0.00012934026
8.0693395e-05
7.1734951e-05
8.0791136e-05
9.2909442e-05
9.6415975e-05
8.8671053e-05
7.5311453e-05
6.2424313e-05
5.3369332e-05
4.8268397e-05
4.8629832e-05
6.9380201e-05
9.097842e-05
4.8094567e-05
4.608881e-05
5.0454307e-05
6.1755771e-05
8.2721499e-05
0.00011464754
0.00015299914
0.00018169228
0.00017792227
0.00013834739
9.9509231e-05
8.5020748e-05
0.00014034731
0.00048617684
0.00022765289
8.3157763e-05
7.7657146e-05
9.644033e-05
0.00011827337
0.00012369563
0.00010986559
8.8260302e-05
6.8766483e-05
5.5528987e-05
4.826193e-05
4.578353e-05
4.9418108e-05
6.2437735e-05
6.0318781e-05
4.9073333e-05
4.9860184e-05
5.7846869e-05
7.2405828e-05
9.3205787e-05
0.00011621932
0.00013158013
0.00012792319
0.00010561655
8.3373216e-05
7.8613612e-05
0.00012405447
0.00024106339
0.00016033128
8.2205355e-05
8.0591892e-05
0.00010392241
0.00013104314
0.00013726303
0.00011987434
9.3865702e-05
7.1080021e-05
5.5915075e-05
4.7881312e-05
4.8177411e-05
6.5515306e-05
8.8412169e-05
7.1680325e-05
4.9721321e-05
4.8581196e-05
5.3522433e-05
6.2100837e-05
7.3891076e-05
8.5928375e-05
9.3242885e-05
9.1633612e-05
8.2938857e-05
7.5429296e-05
7.531651e-05
8.4349435e-05
8.5475316e-05
8.0013191e-05
7.234605e-05
7.6354496e-05
9.3840208e-05
0.000113935
0.00011867584
0.00010535996
8.4729554e-05
6.6134422e-05
5.3293987e-05
4.5697036e-05
4.4402573e-05
6.7112233e-05
0.00010047382
9.2309263e-05
4.5476789e-05
4.6644851e-05
5.0245893e-05
5.4899544e-05
6.0950527e-05
6.7266513e-05
7.1743589e-05
7.3698455e-05
7.5672111e-05
8.2291457e-05
9.4910128e-05
0.00010573258
0.00010140043
8.7164245e-05
7.5566813e-05
7.2856623e-05
7.9841592e-05
8.999209e-05
9.242155e-05
8.4355341e-05
7.1266354e-05
5.8833628e-05
4.9500736e-05
4.23956e-05
3.7826783e-05
5.4297241e-05
6.7675299e-05
3.8977912e-05
4.4161155e-05
4.8001733e-05
5.0857315e-05
5.396062e-05
5.7662509e-05
6.1986556e-05
6.8220195e-05
7.977334e-05
0.00010089544
0.00012989396
0.00015160055
0.00014163121
0.00011164083
8.667292e-05
7.342118e-05
7.0524651e-05
7.2470625e-05
7.2429067e-05
6.7676873e-05
6.0137739e-05
5.2637533e-05
4.5897751e-05
3.8870948e-05
3.1693861e-05
3.8585318e-05
3.394889e-05
4.1141627e-05
4.6009398e-05
4.8603728e-05
5.0609338e-05
5.3343861e-05
5.8228979e-05
6.7921954e-05
8.6659601e-05
0.0001192708
0.00016376136
0.00019814888
0.00018197645
0.00013532378
9.7448211e-05
7.550917e-05
6.5736966e-05
6.2359298e-05
6.0316107e-05
5.7202952e-05
5.2970559e-05
4.8205293e-05
4.2621889e-05
3.5628749e-05
2.8688103e-05
4.2139006e-05
3.7364391e-05
3.7989857e-05
4.3218134e-05
4.6631028e-05
4.865828e-05
5.1101452e-05
5.6047484e-05
6.6579314e-05
8.6708951e-05
0.00012038413
0.00016547883
0.00020090754
0.00018502818
0.00013834185
9.9089453e-05
7.499027e-05
6.2562494e-05
5.6939643e-05
5.4089192e-05
5.1720527e-05
4.8860153e-05
4.4936098e-05
3.9308459e-05
3.3329154e-05
3.6056976e-05
5.0437761e-05
6.1217253e-05
3.0825904e-05
3.861073e-05
4.3714279e-05
4.6559759e-05
4.9068297e-05
5.3356652e-05
6.2175362e-05
7.8687782e-05
0.0001050759
0.00013936454
0.00016625882
0.00015519598
0.0001210401
9.0531682e-05
7.0411103e-05
5.9189792e-05
5.3752151e-05
5.1025818e-05
4.8940498e-05
4.6194193e-05
4.1749109e-05
3.4829219e-05
2.7201407e-05
3.0947485e-05
4.8648189e-05
3.4617338e-05
3.929594e-05
4.3229441e-05
4.6244446e-05
4.9880804e-05
5.6118321e-05
6.7192059e-05
8.422242e-05
0.00010558492
0.00012192344
0.00011605177
9.6268818e-05
7.7062777e-05
6.3384607e-05
5.5479812e-05
5.150072e-05
4.9240257e-05
4.6998129e-05
4.357e-05
3.7997858e-05
3.1227397e-05
3.0574486e-05
4.124008e-05
3.4578522e-05
3.7709502e-05
4.175038e-05
4.5507329e-05
4.9935931e-05
5.6497848e-05
6.5999509e-05
7.7492822e-05
8.6081622e-05
8.3817032e-05
7.4358714e-05
6.4177006e-05
5.6603038e-05
5.2115186e-05
4.955329e-05
4.7388461e-05
4.4302641e-05
3.9625536e-05
3.4527023e-05
3.7061303e-05
5.8002849e-05
4.1044391e-05
3.1100009e-05
3.4914397e-05
3.9761714e-05
4.3599725e-05
4.7879496e-05
5.3001575e-05
5.8769835e-05
6.3097184e-05
6.2888747e-05
5.9307298e-05
5.49849e-05
5.1534298e-05
4.9115303e-05
4.6988875e-05
4.4112024e-05
3.9219825e-05
3.4445676e-05
3.875734e-05
6.2831305e-05
3.2480247e-05
2.9207378e-05
3.4075721e-05
3.6389668e-05
4.0109496e-05
4.416263e-05
4.8282286e-05
5.1495429e-05
5.2634842e-05
5.2020018e-05
5.0409098e-05
4.8234698e-05
4.5578299e-05
4.2322396e-05
3.9149597e-05
3.217159e-05
3.4496082e-05
6.4806699e-05
5.7210944e-05
3.9209927e-05
2.9403421e-05
3.2787989e-05
3.9043811e-05
4.6124454e-05
5.2280611e-05
5.5405185e-05
5.595018e-05
5.3903032e-05
4.8842994e-05
4.1791576e-05
3.5775305e-05
4.0775874e-05
3.8823555e-05
3.9717733e-05
3.2769012e-05
4.6056541e-05
6.1100046e-05
7.556245e-05
8.2469367e-05
8.4044527e-05
7.9989012e-05
7.1049717e-05
5.387908e-05
5.864388e-05
6.2317085e-05
0.00011899582
0.00010553653
0.00010974256
0.00011216857
0.00011291894
9.7769111e-05
9.3727985e-05
8.2418665e-05
9.7551235e-05
9.9020604e-05
9.4717231e-05
8.11572e-05
8.5651273e-05
6.5485473e-05
8.1529875e-05
4.0382667e-05
4.3872215e-05
5.1031795e-05
5.704077e-05
5.9895162e-05
5.9633506e-05
5.6921554e-05
5.0863674e-05
4.3372232e-05
3.6586907e-05
3.3320991e-05
3.996967e-05
7.3802482e-05
9.9646428e-05
3.933806e-05
4.2847925e-05
4.5359547e-05
4.8007247e-05
5.0411364e-05
5.2484106e-05
5.4013918e-05
5.4598261e-05
5.3699571e-05
5.0866864e-05
4.6991504e-05
4.2956108e-05
3.9333826e-05
3.784227e-05
3.4821591e-05
6.5458118e-05
0.00010258504
4.1469695e-05
4.3147253e-05
4.7087569e-05
4.9716012e-05
5.1529251e-05
5.3380799e-05
5.6099374e-05
5.9937762e-05
6.3692822e-05
6.4530599e-05
6.0938615e-05
5.567164e-05
5.0712142e-05
4.6471501e-05
4.2756942e-05
3.8210139e-05
3.5418665e-05
4.6402302e-05
9.4981816e-05
4.0313797e-05
4.3468259e-05
4.7492035e-05
5.0304147e-05
5.2161697e-05
5.3980998e-05
5.7162175e-05
6.3374695e-05
7.3420094e-05
8.4635292e-05
8.8713275e-05
8.1189831e-05
6.9823894e-05
6.0080872e-05
5.3320769e-05
4.8750483e-05
4.494801e-05
4.1214648e-05
3.9718269e-05
5.1736292e-05
7.8766034e-05
3.5821008e-05
4.1324988e-05
4.6869968e-05
5.0325612e-05
5.2506618e-05
5.4142251e-05
5.6527281e-05
6.1956646e-05
7.3673254e-05
9.366236e-05
0.00011760813
0.00012770951
0.00011308896
9.103887e-05
7.2478655e-05
6.0400829e-05
5.3673895e-05
4.9821703e-05
4.6801043e-05
4.3337902e-05
4.0403942e-05
4.8887118e-05
3.709329e-05
3.8765918e-05
4.5289026e-05
5.026123e-05
5.3680057e-05
5.5971865e-05
5.7579157e-05
6.0067083e-05
6.7043268e-05
8.3967274e-05
0.00011503852
0.00015586649
0.00017458196
0.00015109753
0.00011550263
8.6222405e-05
6.7501109e-05
5.7634466e-05
5.2981273e-05
5.0385662e-05
4.7630543e-05
4.3065434e-05
3.7868673e-05
8.1205511e-05
7.5780709e-05
3.8904855e-05
4.3480281e-05
4.9727514e-05
5.5382995e-05
6.0431978e-05
6.4072533e-05
6.5355421e-05
6.5919039e-05
7.1265769e-05
8.9221864e-05
0.00012708448
0.00018137405
0.00020769334
0.00017780623
0.00013228472
9.5337587e-05
7.2302867e-05
6.0390417e-05
5.5054975e-05
5.2612774e-05
5.0675266e-05
4.7451763e-05
4.3319876e-05
5.2014682e-05
3.4870612e-05
4.0443851e-05
4.7882237e-05
5.580012e-05
6.4964088e-05
7.4888464e-05
8.2066412e-05
8.252355e-05
7.7431709e-05
7.5586478e-05
8.6991532e-05
0.00011994809
0.00017205696
0.00019789905
0.00017136758
0.00012856628
9.38195e-05
7.2677199e-05
6.1877965e-05
5.6852937e-05
5.4380817e-05
5.2656784e-05
5.0239306e-05
4.5760061e-05
4.0352667e-05
5.9007248e-05
7.1832476e-05
3.826552e-05
4.4639079e-05
5.3392502e-05
6.5381251e-05
8.2288923e-05
0.00010180344
0.0001161557
0.000115667
9.9749297e-05
8.4114307e-05
8.1771224e-05
9.8833688e-05
0.00013235663
0.00014865618
0.00013281278
0.00010575437
8.3657522e-05
7.0722388e-05
6.4061448e-05
6.0116866e-05
5.7118589e-05
5.4640672e-05
5.2150084e-05
4.8581372e-05
4.4568439e-05
5.0359409e-05
7.2484697e-05
4.4742123e-05
4.9197667e-05
6.0270166e-05
7.9579524e-05
0.00010900567
0.00014434112
0.00017110627
0.00016964007
0.000136097
0.00010086098
8.2089751e-05
8.3404003e-05
9.5312352e-05
0.00010202686
9.5515062e-05
8.4003974e-05
7.6298513e-05
7.3501666e-05
7.1825867e-05
6.8321537e-05
6.3133794e-05
5.8069537e-05
5.4098307e-05
5.1009292e-05
5.1533173e-05
6.8650023e-05
6.7488321e-05
5.1246846e-05
5.3594043e-05
6.8075342e-05
9.6730464e-05
0.00014219448
0.00019791814
0.00024024231
0.00023617552