/*--------------------------------*- C++ -*----------------------------------*\
| =========                 |                                                 |
| \\      /  F ield         | OpenFOAM: The Open Source CFD Toolbox           |
|  \\    /   O peration     | Version:  2406                                  |
|   \\  /    A nd           | Website:  www.openfoam.com                      |
|    \\/     M anipulation  |                                                 |
\*---------------------------------------------------------------------------*/
FoamFile
{
    version     2.0;
    format      ascii;
    arch        "LSB;label=32;scalar=64";
    class       volScalarField;
    location    "100";
    object      k;
}
// * * * * * * * * * * * * * * * * * * * * * * * * * * * * * * * * * * * * * //

dimensions      [0 2 -2 0 0 0 0];

internalField   nonuniform List<scalar> 
150387
(
0.00022693596
7.095137e-05
8.3140276e-05
8.9076797e-05
8.7459785e-05
7.4270001e-05
3.65935e-05
1.0941723e-05
1.1026974e-05
3.7991316e-05
5.5132351e-05
7.6857123e-05
9.0851536e-05
0.00010144862
0.00010653964
0.0001067313
0.00010100332
8.906406e-05
7.4691144e-05
5.5634977e-05
3.1094971e-05
3.3673182e-05
5.5237474e-05
6.7174054e-05
7.6149282e-05
8.5311617e-05
9.3842048e-05
0.00010042368
0.00010474085
0.0001060951
0.00010454795
0.0001007403
9.4559325e-05
8.6224308e-05
7.5931569e-05
5.4771148e-05
1.704312e-05
1.7250064e-05
5.1550118e-05
6.701928e-05
7.5076036e-05
8.2050876e-05
8.9094065e-05
9.5831902e-05
0.00010284664
0.00010938015
0.00011431954
0.00011655481
0.00011558777
0.00011212377
0.00010690102
0.00010035548
9.1817052e-05
7.9105021e-05
6.2574329e-05
3.0542111e-05
2.1929992e-05
5.7376066e-05
7.5640273e-05
8.2628314e-05
8.8278894e-05
9.3638203e-05
9.95444e-05
0.0001061473
0.00011404945
0.00012261773
0.00012976884
0.00013354089
0.00013180488
0.00012587318
0.00011815629
0.00011012121
0.00010167245
9.1920689e-05
8.0810756e-05
6.7806137e-05
3.7463259e-05
5.0739944e-05
7.7646563e-05
8.768247e-05
9.3449056e-05
9.8625802e-05
0.00010357353
0.0001092183
0.0001164615
0.000126183
0.00013764269
0.00014804224
0.00015436503
0.00015135368
0.00014202935
0.0001307503
0.00011964676
0.00010956038
0.00010004481
9.0185375e-05
7.9056425e-05
6.408253e-05
2.8231858e-05
3.9905731e-05
7.3651424e-05
8.9461477e-05
9.7587396e-05
0.00010356487
0.00010898831
0.00011383363
0.00011919135
0.00012671488
0.00013789668
0.00015218483
0.00016705175
0.00017663909
0.00017213644
0.00015880677
0.00014349963
0.0001292472
0.00011693126
0.00010642421
9.6711559e-05
8.6247076e-05
7.2778935e-05
4.9947533e-05
1.0971079e-05
1.6356029e-05
6.9805302e-05
8.9573685e-05
9.9929113e-05
0.0001077893
0.0001146776
0.00012085876
0.00012566948
0.00012999161
0.00013634012
0.00014698491
0.0001629229
0.00018172795
0.00019436767
0.00018885877
0.00017227997
0.00015380706
0.00013739088
0.00012359546
0.0001122675
0.0001024546
9.2755604e-05
8.1115932e-05
6.4761574e-05
4.1970918e-05
4.7837276e-05
8.4876366e-05
9.9914218e-05
0.0001097647
0.00011882119
0.00012788313
0.00013568568
0.00014057385
0.00014273437
0.0001452157
0.00015211683
0.00016595859
0.00018530369
0.00019871059
0.0001938271
0.00017715416
0.00015851778
0.0001422307
0.00012879475
0.00011767949
0.00010796206
9.8621296e-05
8.8339675e-05
7.4850752e-05
5.5160929e-05
1.1721977e-05
6.9155129e-05
9.4151345e-05
0.00010790697
0.0001191732
0.00013134232
0.00014365691
0.00015405704
0.00015941831
0.00015831673
0.00015462268
0.00015368239
0.00015975647
0.0001738952
0.00018492001
0.00018278714
0.00017078791
0.00015666216
0.0001442124
0.00013343484
0.00012370992
0.0001143629
0.00010503314
9.5285694e-05
8.3747408e-05
6.7267499e-05
3.807649e-05
1.7142762e-05
8.6036901e-05
0.00010193803
0.0001148326
0.00012884422
0.00014500854
0.00016218496
0.00017668176
0.00018314238
0.00017780725
0.00016653418
0.00015585939
0.00015083918
0.00015438901
0.0001613347
0.00016274955
0.00015832969
0.0001523548
0.00014658656
0.0001401966
0.00013212873
0.00012261738
0.000112474
0.00010222527
9.1727109e-05
7.9971338e-05
6.5337525e-05
6.6298079e-05
9.8258638e-05
0.00010716319
0.00012051213
0.00013786028
0.00015906393
0.00018220947
0.00020204864
0.00020999694
0.0001991124
0.0001792327
0.0001594171
0.00014632825
0.00013620961
0.00013796008
0.00014264403
0.00014644529
0.00015094809
0.00015317997
0.00015107412
0.00014409744
0.00013351069
0.00012137647
0.00010957576
9.9057644e-05
9.0923911e-05
8.9310223e-05
2.0129436e-05
7.9680161e-05
0.00010404208
0.00010944828
0.00012357461
0.00014344528
0.00016843959
0.00019631912
0.00022041432
0.00022907899
0.00021316517
0.00018690886
0.00016240717
0.00015984519
0.00013762956
0.00013547729
0.00013863675
0.00014300462
0.00015633155
0.00016578772
0.00016677959
0.00015913231
0.00014600018
0.00013096481
0.00011666118
0.00010483528
9.6819624e-05
9.9072135e-05
3.0583777e-05
6.9102579e-05
9.9085372e-05
0.00010867767
0.00012284431
0.00014220527
0.00016628718
0.00019290599
0.00021539772
0.00022300681
0.00020792271
0.00018217357
0.00015553719
0.00014521357
4.8694706e-05
5.2589123e-05
0.00013141875
0.00014520519
0.00016611206
0.00018160223
0.00018440483
0.00017463341
0.00015767371
0.00013907354
0.00012214646
0.00010853683
9.8635572e-05
8.9303054e-05
2.9294848e-05
7.1338181e-05
9.819884e-05
0.00010612127
0.00011893538
0.00013591406
0.00015568561
0.00017643947
0.0001930652
0.00019850719
0.00018804282
0.00016924392
0.00015108519
0.0001521704
9.4137462e-05
0.00012989974
0.0001441897
0.0001524686
0.00017423752
0.00019272594
0.00019645006
0.0001847476
0.00016469448
0.00014329765
0.00012461849
0.00011037874
0.00010201688
0.00010254157
3.496905e-05
7.0265177e-05
9.640918e-05
0.00010145815
0.00011253361
0.00012669461
0.00014227167
0.00015763865
0.00016956824
0.00017426321
0.00016974045
0.00016031872
0.00015269588
0.00015639901
0.00014929947
0.00014854164
0.00014877361
0.00015486453
0.0001711776
0.00018583972
0.00018822005
0.00017729417
0.00015891443
0.00013910055
0.00012158991
0.00010832884
0.00010021056
0.00010097624
3.0268342e-05
3.7365376e-05
8.3863927e-05
9.3707225e-05
0.00010473664
0.00011673793
0.00012924401
0.00014126526
0.00015098003
0.00015711499
0.00015997448
0.00016326803
0.00016932947
0.00017572772
0.00017256802
0.00016512431
0.00015828624
0.000157187
0.00016362341
0.00017080721
0.00017083056
0.00016187539
0.0001473407
0.00013132926
0.00011659703
0.00010431994
9.3136459e-05
8.0516005e-05
2.1254475e-05
1.4262217e-05
6.6556273e-05
8.3963149e-05
9.668068e-05
0.00010770757
0.00011832319
0.00012868581
0.00013841423
0.00014758797
0.00015802664
0.0001725648
0.00019067095
0.00020479054
0.00020122018
0.00018666302
0.00017082484
0.00016007686
0.00015628546
0.00015589088
0.0001532191
0.00014565117
0.00013445182
0.00012203929
0.00011039085
9.8903279e-05
8.3534898e-05
5.563019e-05
4.5181959e-05
7.3044742e-05
8.8458938e-05
9.9751469e-05
0.00010969376
0.00011954423
0.00013005745
0.00014242053
0.00015832874
0.00017997924
0.00020636571
0.00022781343
0.00022282601
0.00020160497
0.0001786602
0.00016091012
0.00015001762
0.00014381476
0.00013844526
0.00013131163
0.00012236948
0.00011287688
0.00010339687
9.1805117e-05
7.2483566e-05
3.095952e-05
2.6806247e-05
6.2506751e-05
7.9803857e-05
9.2502948e-05
0.00010271807
0.00011261141
0.00012363422
0.00013738493
0.00015504882
0.00017811566
0.00020548101
0.00022801288
0.00022287667
0.00020107967
0.00017711362
0.00015730685
0.00014332128
0.00013371761
0.00012644485
0.00011944654
0.00011196232
0.00010413613
9.5092345e-05
8.2131551e-05
5.9714542e-05
1.0962856e-05
4.3394888e-05
6.8811951e-05
8.4804903e-05
9.622582e-05
0.00010632856
0.0001171782
0.00013043302
0.00014681812
0.00016725292
0.00019039762
0.00020922122
0.00020539462
0.0001877087
0.00016724696
0.00014915619
0.00013502252
0.00012450203
0.00011648134
0.00010952662
0.000102641
9.496965e-05
8.406619e-05
6.4695869e-05
3.8132831e-05
1.3264603e-05
5.7746862e-05
7.618636e-05
8.9305758e-05
9.9862222e-05
0.00011017909
0.00012173814
0.00013547723
0.00015150354
0.00016858943
0.00018208209
0.00017994866
0.00016777236
0.0001524869
0.00013779236
0.00012536017
0.00011542869
0.00010745855
0.00010043245
9.3299604e-05
8.43352e-05
7.0744262e-05
4.2983591e-05
7.6154415e-06
3.1379425e-05
6.5686029e-05
8.0172692e-05
9.2056622e-05
0.00010256805
0.00011266114
0.00012331002
0.00013500938
0.00014641171
0.00015522673
0.0001545569
0.00014703215
0.00013642376
0.00012517211
0.00011494804
0.00010609622
9.8279294e-05
9.0642445e-05
8.2102302e-05
7.1441876e-05
5.3851122e-05
1.5354468e-05
3.8468395e-05
6.6037995e-05
8.035344e-05
9.3170604e-05
0.00010332378
0.00011179632
0.00012002494
0.00012722722
0.00013285459
0.00013328757
0.00012873879
0.00012140515
0.00011289664
0.00010434739
9.6069793e-05
8.7655951e-05
7.7967357e-05
6.7120275e-05
5.3329827e-05
2.1727265e-05
2.8548004e-05
5.6496632e-05
7.8237272e-05
9.1072076e-05
9.9764075e-05
0.00010673878
0.00011223593
0.00011663337
0.00011767938
0.00011483466
0.00010931275
0.00010188056
9.3223223e-05
8.3662522e-05
7.3139559e-05
5.8558928e-05
4.1709341e-05
1.5979943e-05
1.5182983e-05
4.9080565e-05
6.9867902e-05
8.1623193e-05
9.2305372e-05
0.00010161317
0.00010838184
0.00011076057
0.00010876233
0.00010281711
9.2828997e-05
7.981289e-05
6.5698746e-05
5.2738522e-05
3.6090228e-05
9.5539131e-06
1.5634379e-05
4.3773008e-05
6.791482e-05
9.3263982e-05
0.00011286991
0.00011933281
0.00011765876
0.00010739981
8.7361656e-05
5.8402392e-05
3.1737087e-05
1.3055523e-05
1.8470961e-05
3.7328686e-05
4.19051e-05
4.0962276e-05
2.8085094e-05
2.3595478e-05
3.0064171e-05
6.5630862e-05
0.00011736209
0.00015452724
0.00016194997
0.00015807215
0.00013633667
6.9945599e-05
3.8598848e-05
4.3189684e-05
0.00010143166
0.00012013836
0.00014106923
0.00015844847
0.00016908177
0.0001726509
0.00016995854
0.00015967978
0.00014265223
0.0001240347
0.00010562277
6.611344e-05
2.9218377e-05
3.5968845e-05
8.9197504e-05
0.00011813607
0.00013139591
0.00014318506
0.00015371133
0.00016318621
0.0001704183
0.00017471981
0.00017517408
0.00017109087
0.00016331146
0.00015289682
0.0001400529
0.00012546552
8.9268519e-05
4.6870254e-05
4.2639005e-05
0.00011363293
0.00012854453
0.00014065504
0.00014993785
0.00015821527
0.00016629953
0.00017497021
0.00018362812
0.00019063567
0.00019335603
0.00018963804
0.0001818297
0.00017221905
0.0001613596
0.00014828542
0.00012939928
0.00010807362
6.4295049e-05
4.1302498e-05
0.00011709101
0.00013655088
0.00014756929
0.00015578522
0.00016265523
0.00016979545
0.00017845639
0.00018974492
0.00020326574
0.00021599229
0.00022167827
0.0002153568
0.00020260586
0.00018883402
0.00017608339
0.00016384554
0.00015034313
0.00013455798
0.00011528213
7.0851502e-05
3.3760795e-05
0.00010886174
0.00013703745
0.0001520099
0.00016079781
0.00016751977
0.00017352774
0.00018061733
0.00019092267
0.00020652603
0.00022735396
0.00024854945
0.00025831984
0.0002478166
0.00022747503
0.00020642528
0.00018881918
0.00017482486
0.00016260558
0.00014990728
0.00013391892
0.00011090639
6.250888e-05
9.1066455e-05
0.00013204323
0.0001530696
0.00016509809
0.00017338449
0.00017993249
0.00018557561
0.00019227946
0.0002034831
0.00022283789
0.00025068777
0.00028168239
0.0002965364
0.00028143742
0.00025264121
0.00022390442
0.00020060828
0.00018365368
0.00017089788
0.00015947513
0.00014618825
0.00012610094
8.7776103e-05
3.2385453e-05
4.8913816e-05
0.00012919158
0.00015177479
0.00016740773
0.00017902379
0.00018869553
0.00019647961
0.00020174555
0.00020625595
0.00021517383
0.00023421744
0.00026553725
0.00030365398
0.00032284678
0.00030470882
0.00027010125
0.00023635116
0.0002096685
0.00019087221
0.00017757744
0.00016675486
0.00015559557
0.00014042891
0.00011782724
8.8383699e-05
0.00010881061
0.00014412205
0.00016584634
0.00018161959
0.00019614173
0.00021014251
0.00022106556
0.00022575798
0.00022503902
0.00022627565
0.00023789645
0.00026432001
0.00030108571
0.00032017645
0.00030404407
0.00027124074
0.0002392745
0.0002143726
0.00019671016
0.00018395861
0.00017349097
0.00016326251
0.00015077015
0.00013169735
9.9766041e-05
3.0320014e-05
3.0005237e-05
0.00012886479
0.00015796939
0.00017845561
0.00019743914
0.00021859075
0.0002401926
0.00025641208
0.00026050938
0.00025121072
0.00023914918
0.00023601777
0.00024796401
0.0002727482
0.00028685702
0.00027759131
0.00025558678
0.00023372944
0.00021657524
0.00020335404
0.00019212003
0.00018157142
0.00017111295
0.00015959749
0.00014426916
0.00011968327
7.3762411e-05
5.3737952e-05
0.00014754193
0.00016928923
0.00019032066
0.00021540697
0.00024603382
0.00027831042
0.00030259096
0.0003064706
0.00028516648
0.00025645537
0.00023554783
0.00022995609
0.00023586137
0.00024449348
0.00024317092
0.00023561687
0.00022842573
0.00022253779
0.00021523704
0.0002050844
0.00019290463
0.00018039176
0.00016809434
0.00015521749
0.00014060998
0.0001195027
0.00010933616
0.00016288725
0.00017775306
0.00020071659
0.00023292037
0.00027414311
0.00031872139
0.00035242452
0.00035571438
0.00032029215
0.00027417119
0.00023898851
0.00023018525
0.00021744588
0.0002217508
0.00022040592
0.00022400488
0.00023202446
0.00023822296
0.00023640773
0.00022553392
0.0002090795
0.0001919342
0.00017674741
0.0001641332
0.00015654042
0.00015560873
4.1737179e-05
0.00014316601
0.00016892021
0.0001818087
0.00020646728
0.00024319108
0.00029173509
0.0003446044
0.00038413139
0.00038556922
0.00033957759
0.00028267958
0.00024327547
0.00024921742
0.00023804592
0.00023608628
0.00022099538
0.00022510595
0.00024728336
0.00026527639
0.00026712754
0.00025269855
0.00022938087
0.00020509043
0.00018496659
0.00016995092
0.0001611315
0.00016911007
5.6506858e-05
0.00014349082
0.00016347757
0.00018043899
0.00020418677
0.00023879118
0.00028336452
0.00033097663
0.00036541824
0.00036587362
0.00032530311
0.00027347792
0.00023487467
0.00024533388
9.8979326e-05
0.0001528449
0.00021757845
0.00023282885
0.0002686229
0.00029722672
0.00030117475
0.00028073363
0.0002487439
0.00021675642
0.00019123821
0.00017303384
0.00015962544
0.00014250759
4.8430119e-05
0.00013044902
0.00016510966
0.0001763619
0.00019554906
0.00022254416
0.00025571695
0.00028919664
0.0003119767
0.00031190735
0.00028668781
0.00025336893
0.00023373477
0.00024923262
0.00019681137
0.00023392015
0.00022950463
0.00024238346
0.00028023952
0.00031283082
0.00031708912
0.00029313273
0.00025675408
0.00022104845
0.00019306809
0.00017389283
0.00016450452
0.00016848753
5.9918958e-05
0.00013399471
0.00015974053
0.0001691877
0.00018447523
0.00020404843
0.0002269811
0.00024923566
0.00026435782
0.00026687216
0.00025733243
0.00024498169
0.00023889345
0.00024410067
0.00023503143
0.00023138323
0.00022808501
0.00024160407
0.0002690903
0.00029326928
0.00029561162
0.00027518094
0.00024404784
0.00021299318
0.00018807279
0.00016938623
0.00015645103
0.00016621102
5.436225e-05
8.0045152e-05
0.00014348688
0.00015914224
0.00017347867
0.00018813922
0.00020388972
0.00021943651
0.00023191314
0.00024004375
0.00024650288
0.00025694084
0.00027294968
0.00028408524
0.00027539036
0.00025693711
0.00024217323
0.00024006492
0.00025005046
0.00026141444
0.00026082492
0.00024584198
0.0002230637
0.00019978292
0.00017975689
0.00016106462
0.000139659
0.00013221132
4.5443456e-05
0.00012230142
0.00014733497
0.00016336676
0.0001759798
0.00018798337
0.00020030153
0.00021323462
0.00022845563
0.00024965942
0.00028058036
0.00031785587
0.00034193806
0.00032904768
0.00029353152
0.00026093719
0.00024123843
0.00023458021
0.00023388958
0.0002297342
0.00021849851
0.00020272259
0.00018634399
0.00017017194
0.00015055134
0.00012126639
9.6469669e-05
0.00010167474
0.00013406113
0.00015351035
0.00016645777
0.00017736774
0.00018879952
0.00020312766
0.00022392986
0.00025520587
0.00029979873
0.00035241789
0.00038796071
0.00037020164
0.00032031691
0.00027382154
0.00024166875
0.00022353505
0.00021409703
0.00020665232
0.00019751382
0.00018645636
0.00017424626
0.00015959346
0.00013806467
0.00010397147
4.3317832e-05
6.712745e-05
0.00011957013
0.00014242578
0.00015780126
0.00016931897
0.00018080021
0.00019561178
0.00021782109
0.00025109206
0.00029698491
0.00035002496
0.00038626697
0.00036930461
0.00031977491
0.00027184911
0.00023637843
0.00021360785
0.00020007149
0.00019096079
0.00018272814
0.00017374428
0.00016271161
0.00014669504
0.00012296414
0.00010525556
2.516223e-05
2.5004828e-05
8.8742873e-05
0.00012705242
0.00014769349
0.00016134487
0.00017330527
0.00018735347
0.00020723269
0.00023614862
0.00027442255
0.00031734463
0.00034654991
0.00033407861
0.00029537027
0.0002557168
0.00022436349
0.00020275192
0.00018896793
0.00017954246
0.00017146165
0.00016249792
0.0001498123
0.00012828845
8.8391491e-05
6.4488998e-05
4.1781207e-05
0.00011069989
0.00013440878
0.00015123189
0.00016450657
0.00017774283
0.00019394525
0.00021577039
0.00024349447
0.00027342891
0.00029350418
0.00028593632
0.00026035633
0.00023209282
0.00020820837
0.00019085686
0.0001787941
0.00016963002
0.00016092039
0.00015033048
0.00013403667
0.00010863215
8.0885912e-05
6.8980514e-05
0.00011554924
0.00013524461
0.00015181453
0.00016614704
0.00017991629
0.0001954672
0.00021369358
0.00023251327
0.00024493024
0.00024118551
0.00022618714
0.00020803146
0.00019170106
0.00017874867
0.00016833776
0.0001588069
0.00014791019
0.00013372867
0.00011447534
9.9746602e-05
3.1343169e-05
7.1059411e-05
0.00010918955
0.00013038378
0.00014997502
0.0001641912
0.00017676817
0.00018902324
0.00020055226
0.00020821346
0.00020704013
0.00019891001
0.00018791307
0.00017668976
0.00016615198
0.00015573675
0.00014403319
0.00012752498
0.00010963801
0.00010075092
3.5052566e-05
5.7695378e-05
9.0238738e-05
0.0001263919
0.00014215284
0.00015589868
0.00016772062
0.00017788517
0.0001846412
0.00018561517
0.00018141468
0.00017366188
0.00016318763
0.00015083202
0.00013681855
0.00012177853
8.8871688e-05
8.2924829e-05
3.2870257e-05
3.6075869e-05
9.1301335e-05
0.00010738922
0.00012567453
0.00014458677
0.00016301229
0.00017554365
0.0001801416
0.00017784796
0.00016816926
0.00015031276
0.00012771401
0.0001052015
0.00010401144
6.4883662e-05
3.3416716e-05
7.4657317e-05
0.00011394107
0.00015264462
0.00018374376
0.00019518834
0.00019456033
0.00018058811
0.00014871196
0.00010768716
5.2472616e-05
2.7661413e-05
4.4751992e-05
6.5554993e-05
6.9984578e-05
6.9779748e-05
5.741101e-05
4.1413455e-05
7.2810632e-05
0.00014412625
0.00020055283
0.00020799177
0.00020245131
0.00017613012
8.1432179e-05
5.1203102e-05
6.343646e-05
0.00013109766
0.00015043955
0.00017286161
0.00019306096
0.00020479393
0.00020790361
0.00020369807
0.00019038333
0.00016923112
0.00014775993
0.00012776628
8.6822746e-05
3.893745e-05
4.6034708e-05
0.00011341106
0.00014941171
0.00016370916
0.00017633394
0.00018765885
0.00019780564
0.00020550603
0.00020979421
0.00020953503
0.00020372722
0.00019364077
0.00018110512
0.00016654949
0.00015083664
0.00010815781
5.9467098e-05
5.5557709e-05
0.00014206781
0.00015901523
0.00017347453
0.00018385936
0.00019258813
0.00020110097
0.00021049719
0.00022034844
0.00022857336
0.00023126765
0.00022588848
0.00021583792
0.00020418973
0.00019156737
0.00017685401
0.0001555471
0.00013270157
8.5058963e-05
5.3143661e-05
0.00014373764
0.000166559
0.00017997689
0.00018947769
0.00019686909
0.00020433186
0.00021381907
0.00022705397
0.00024392657
0.00026044431
0.00026706374
0.00025794573
0.00024120234
0.00022410812
0.0002091409
0.00019543986
0.00018057448
0.00016326409
0.00014262696
9.1421006e-05
4.110588e-05
0.00013272719
0.00016527191
0.0001834851
0.00019392464
0.00020124459
0.00020746421
0.00021504265
0.00022706147
0.00024666139
0.00027425726
0.00030319135
0.00031549217
0.00030013506
0.00027263222
0.00024546302
0.00022405876
0.00020822548
0.00019514916
0.00018168703
0.00016439817
0.00013987141
8.5243227e-05
0.00010952197
0.0001577755
0.00018308181
0.0001975537
0.00020695897
0.00021385556
0.00021958167
0.00022684367
0.0002404746
0.0002658116
0.0003040196
0.00034743986
0.00036694857
0.00034464011
0.00030500732
0.00026694802
0.00023769458
0.00021798195
0.00020439884
0.00019277375
0.00017887986
0.00015694186
0.00011278742
4.6105743e-05
6.5387267e-05
0.00015451358
0.00018027767
0.00019908182
0.00021277285
0.00022378757
0.00023222071
0.00023734652
0.00024173442
0.00025265186
0.00027825851
0.00032206588
0.0003762119
0.00040173121
0.00037479152
0.0003268673
0.00028166481
0.00024768378
0.00022548345
0.00021125977
0.0002005428
0.00018942379
0.00017342505
0.00014952184
0.00012276068
0.00013069891
0.00017071712
0.00019630643
0.00021529473
0.00023271397
0.00024949753
0.00026210699
0.00026620185
0.00026335819
0.00026417045
0.00028047792
0.00031842661
0.00037081056
0.00039606961
0.00037170875
0.00032614952
0.00028334141
0.00025180235
0.00023116178
0.00021764387
0.00020739042
0.00019749763
0.00018469385
0.00016409838
0.0001296995
4.4564151e-05
3.6989171e-05
0.00015260726
0.00018659277
0.00021117215
0.00023432459
0.00026069786
0.00028797517
0.00030780471
0.00031074459
0.00029590926
0.0002789126
0.00027600117
0.0002952784
0.00033130822
0.00034935285
0.00033410716
0.00030309182
0.00027388714
0.00025275933
0.00023803092
0.00022641834
0.000215892
0.00020557684
0.00019388882
0.00017732622
0.00015019927
9.689367e-05
6.4030962e-05
0.00017415592
0.00020022645
0.00022573944
0.00025709549
0.00029664249
0.00033884612
0.00036967174
0.00037184442
0.00034043821
0.00030090823
0.00027451756
0.00027049636
0.00028199272
0.00029272639
0.00028819888
0.00027588717
0.0002658759
0.00025944927
0.00025236556
0.0002419338
0.00022892248
0.00021561256
0.00020273272
0.00018895761
0.00017284935
0.00015371568
0.00013220118
0.00019348416
0.0002111394
0.00023919666
0.00028035479
0.00033481065
0.00039412682
0.00043752991
0.00043822648
0.00038774751
0.00032544499
0.00028000802
0.0002702618
0.00025740263
0.00026272898
0.00025928994
0.00026186498
0.00027143915
0.00028050778
0.00028032342
0.00026840451
0.00024907517
0.00022904754
0.00021201705
0.000198332
0.00019067181
0.00019803465
5.6281331e-05
0.00018297596
0.00020179064
0.00021687212
0.00024738467
0.00029529617
0.00036017343
0.00043132287
0.00048252776
0.00048017533
0.00041556079
0.00033936908
0.00028686316
0.00030325499
0.00029470376
0.0002952875
0.00026151155
0.00026574686
0.00029406608
0.00031871633
0.00032323363
0.00030560829
0.00027592532
0.00024545279
0.00022129965
0.00020424003
0.00019515093
0.00021496192
7.6314739e-05
0.00017475723
0.000195914
0.00021589083
0.00024519852
0.00029018381
0.00034994897
0.00041409102
0.00045883196
0.00045541577
0.00039770211
0.00032801104
0.00027778694
0.00030169358
0.00012330283
0.00020162109
0.0002580528
0.00027821996
0.00032535016
0.00036480985
0.00037181078
0.00034511549
0.0003025226
0.0002606493
0.00022864462
0.00020708335
0.00019162732
0.00017428009
6.1876058e-05
0.00016857202
0.00019940546
0.00021173358
0.00023465996
0.00026870454
0.00031181206
0.00035544861
0.0003836909
0.00038020448
0.00034394608
0.00029932313
0.00027434242
0.00030603786
0.0002463458
0.00029313109
0.0002702532
0.00028928426
0.00034045184
0.00038596245
0.00039347086
0.00036191805
0.00031309993
0.00026603998
0.00023061995
0.00020758284
0.00019682383
0.00021030424
7.7190676e-05
0.00017700228
0.00019403114
0.0002040635
0.00022146132
0.00024482125
0.00027309402
0.00030034725
0.00031754641
0.0003175514
0.00030264454
0.00028618407
0.00028005641
0.00028768392
0.00027781931
0.00027157711
0.00026649533
0.00028501805
0.0003231075
0.00035787607
0.0003632188
0.00033698847
0.00029577738
0.00025546613
0.00022433646
0.00020181762
0.00018644694
0.00020713534
7.4983567e-05
9.6347067e-05
0.00017588899
0.00019328177
0.00020901048
0.00022525985
0.00024318757
0.00026078523
0.00027398502
0.00028142162
0.00028770627
0.00030127522
0.00032385661
0.00034091563
0.0003303787
0.00030331707
0.00028229716
0.0002798459
0.0002952728
0.00031337241
0.00031514387
0.00029670798
0.00026755001
0.00023823878
0.00021387539
0.00019148904
0.00016605481
0.00016158779
5.9428453e-05
0.00015301258
0.00018068559
0.00019811702
0.00021131266
0.00022381073
0.00023675135
0.00025046064
0.00026750508
0.00029370689
0.00033477624
0.00038462002
0.00041793941
0.00040183687
0.00035175811
0.00030659132
0.00028067021
0.00027404363
0.00027612409
0.00027331611
0.00026047113
0.00024137234
0.00022169683
0.00020244216
0.00017906413
0.00014525543
0.0001207537
0.00013182709
0.00016677701
0.00018776645
0.00020113586
0.00021195283
0.0002235389
0.00023914735
0.00026393735
0.00030408028
0.00036375868
0.00043449977
0.00048289283
0.00046047264
0.00039000631
0.00032565216
0.00028292204
0.00026081617
0.00025109095
0.00024391997
0.00023418809
0.00022173908
0.0002076834
0.00019038111
0.00016519674
0.00012696518
5.5385886e-05
9.6605608e-05
0.00015170519
0.00017580857
0.00019199892
0.00020353418
0.0002151318
0.00023143642
0.00025833472
0.0003014202
0.00036310201
0.00043488715
0.00048479802
0.00046321081
0.00039306308
0.00032635597
0.00027895026
0.00025040963
0.00023503425
0.0002256144
0.00021719897
0.00020755798
0.00019496794
0.00017612618
0.00014929624
0.00013516293
3.3350064e-05
3.9115801e-05
0.00011450325
0.00015845062
0.00018081883
0.00019505816
0.0002073236
0.00022262876
0.0002463695
0.00028340587
0.00033450787
0.00039268786
0.00043330338
0.00041733359
0.00036267365
0.00030781269
0.00026621806
0.00023921578
0.00022344865
0.0002136229
0.00020541439
0.0001957089
0.00018098018
0.00015584198
0.0001097474
8.4353175e-05
5.6986779e-05
0.0001403781
0.00016547294
0.00018352617
0.00019756008
0.00021187196
0.00023062446
0.00025776731
0.00029402774
0.00033434465
0.00036202865
0.000352418
0.00031694129
0.00027870513
0.00024777069
0.00022672017
0.00021334484
0.00020388772
0.00019480718
0.00018295438
0.00016405711
0.00013536147
0.00010591106
9.4268529e-05
0.00014370834
0.00016465493
0.00018262773
0.00019836099
0.00021391
0.00023247349
0.00025547404
0.00028029601
0.00029707809
0.00029247367
0.0002724558
0.00024891574
0.00022882619
0.00021403346
0.00020301272
0.00019311155
0.00018126074
0.00016524796
0.00014364162
0.00013068537
4.405828e-05
9.1739461e-05
0.00013472646
0.00015726407
0.00017915331
0.00019508261
0.00020969824
0.00022459604
0.00023932023
0.00024920084
0.00024799781
0.00023801542
0.0002248414
0.0002121159
0.00020083134
0.00019000531
0.00017754005
0.00015911224
0.00013996073
0.00013387104
4.7696693e-05
7.5628779e-05
0.00010980106
0.00015236746
0.00016921451
0.0001846792
0.00019875897
0.00021138887
0.00021990283
0.000221575
0.00021717645
0.00020870764
0.00019738182
0.00018424961
0.00016964633
0.00015413134
0.00011531514
0.00011264539
4.7451402e-05
4.580195e-05
0.00011900849
0.00012990954
0.00014973722
0.00017129825
0.00019356462
0.00020911008
0.00021535339
0.00021357378
0.00020319497
0.00018308408
0.00015863364
0.00013553813
0.00014126671
9.0255942e-05
4.3709129e-05
9.2311776e-05
0.00014071567
0.00018874294
0.0002284048
0.00024309604
0.00024357807
0.00022784167
0.0001853426
0.0001402459
6.9194469e-05
3.8163834e-05
5.7477088e-05
8.4343888e-05
8.9986418e-05
9.061651e-05
8.1093486e-05
5.0985809e-05
8.4369139e-05
0.00016501915
0.00022937398
0.00023665673
0.00022943639
0.00019911173
9.1254851e-05
5.7892947e-05
7.861989e-05
0.00015743159
0.00017812728
0.00020162119
0.00022332865
0.00023524953
0.00023740784
0.0002315057
0.00021544065
0.00019103109
0.00016710276
0.00014526866
0.0001005129
4.4574609e-05
5.4742117e-05
0.00013602693
0.00017793652
0.00019338438
0.00020647532
0.00021819908
0.00022861766
0.00023641524
0.00024035482
0.0002390537
0.00023140598
0.00021923674
0.00020496868
0.00018904474
0.0001719915
0.00012439239
6.9412934e-05
6.5969814e-05
0.0001676546
0.00018693808
0.00020331526
0.00021451257
0.00022343428
0.00023222505
0.0002423132
0.00025346278
0.00026290333
0.00026519498
0.00025757181
0.00024498968
0.00023137471
0.00021732707
0.0002014269
0.00017849553
0.00015428889
0.00010152793
6.2616308e-05
0.00016778849
0.00019383575
0.00020912472
0.00021959616
0.00022732353
0.00023500833
0.00024544886
0.0002611912
0.00028254221
0.00030396688
0.00031137447
0.00029800501
0.00027587529
0.00025473926
0.00023748616
0.00022264922
0.0002070419
0.00018904881
0.00016733949
0.00011021309
4.6871195e-05
0.00015360715
0.00019053421
0.00021140365
0.00022319222
0.00023096698
0.00023726962
0.00024531007
0.00025948768
0.0002845726
0.00032172321
0.00036163365
0.00037700499
0.0003540631
0.00031626369
0.00028094272
0.00025485977
0.0002371294
0.00022355879
0.00020995198
0.00019216642
0.00016607372
0.0001045436
0.00012516747
0.00018023267
0.00020924991
0.00022584471
0.00023630019
0.0002434943
0.0002491072
0.00025680611
0.00027352213
0.00030725792
0.00036068531
0.00042266539
0.00044814852
0.00041466749
0.00035911652
0.00030800398
0.00027093556
0.00024791273
0.00023362618
0.00022221385
0.00020833259
0.0001852962
0.00013601347
5.7868697e-05
7.4902526e-05
0.00017543551
0.00020467711
0.00022627934
0.00024202564
0.00025462558
0.00026379757
0.00026840579
0.00027212651
0.00028546248
0.00032047806
0.00038332466
0.00046192294
0.000495814
0.00045516147
0.00038758911
0.00032598084
0.00028214019
0.00025568422
0.00024056208
0.00023027056
0.00021964488
0.00020342204
0.00017830843
0.00014963169
0.00014787503
0.00019326579
0.00022218218
0.00024417272
0.00026496213
0.00028545213
0.0003002521
0.00030314943
0.00029671912
0.00029652845
0.00031967636
0.00037536859
0.00045188054
0.00048555755
0.00044854459
0.00038413498
0.00032563719
0.00028506379
0.00026084741
0.00024676162
0.00023707802
0.00022788578
0.0002152633
0.00019378624
0.00015656079
5.6947193e-05
4.1518622e-05
0.00017188003
0.00021065966
0.00023891285
0.00026656031
0.00029963225
0.00033471092
0.00035959368
0.0003606973
0.00033751319
0.00031320289
0.00031082317
0.00034131083
0.00039488439
0.00041859001
0.0003941183
0.00034985266
0.00031006092
0.00028372883
0.00026761307
0.00025610973
0.00024598917
0.00023607205
0.00022452491
0.00020726321
0.00017800321
0.00011780922
7.1166982e-05
0.00019578477
0.00022615475
0.00025614728
0.00029509432
0.00034667902
0.00040283128
0.00044288124
0.00044253388
0.00039655898
0.00034185607
0.00030771716
0.00030612406
0.00032640927
0.00034030487
0.00033115413
0.00031189934
0.00029787445
0.00029114631
0.00028512174
0.00027496869
0.0002612089
0.00024699133
0.00023353978
0.00021912431
0.00020171191
0.00018012606
0.00014785783
0.00021825539
0.00023931576
0.00027316013
0.00032596729
0.00039885445
0.00047892469
0.00053557129
0.00053227986
0.00046084881
0.00037614219