/*--------------------------------*- C++ -*----------------------------------*\
| =========                 |                                                 |
| \\      /  F ield         | OpenFOAM: The Open Source CFD Toolbox           |
|  \\    /   O peration     | Version:  2406                                  |
|   \\  /    A nd           | Website:  www.openfoam.com                      |
|    \\/     M anipulation  |                                                 |
\*---------------------------------------------------------------------------*/
FoamFile
{
    version     2.0;
    format      ascii;
    arch        "LSB;label=32;scalar=64";
    class       volScalarField;
    location    "100";
    object      nut;
}
// * * * * * * * * * * * * * * * * * * * * * * * * * * * * * * * * * * * * * //

dimensions      [0 2 -1 0 0 0 0];

internalField   nonuniform List<scalar> 
150387
(
6.3873713e-06
1.2910807e-05
1.4864413e-05
1.5876852e-05
1.5899843e-05
1.4464518e-05
5.4898392e-06
1.0373396e-06
5.7522471e-07
7.7851584e-06
1.1155974e-05
1.4038454e-05
1.6207441e-05
1.8096298e-05
1.9278482e-05
1.9827557e-05
1.955507e-05
1.8280071e-05
1.635324e-05
1.2740767e-05
5.9317478e-06
6.1592095e-06
1.0663366e-05
1.2361657e-05
1.3715711e-05
1.5095736e-05
1.6686889e-05
1.804502e-05
1.920819e-05
1.990646e-05
2.0134038e-05
1.9877056e-05
1.9129441e-05
1.791724e-05
1.5730391e-05
1.1206372e-05
2.129181e-06
6.7815255e-07
9.535959e-06
1.2035079e-05
1.3256828e-05
1.4180599e-05
1.5262187e-05
1.6368269e-05
1.7709121e-05
1.9139757e-05
2.0424538e-05
2.1177319e-05
2.1291118e-05
2.0892672e-05
2.0198543e-05
1.926069e-05
1.7828534e-05
1.5596474e-05
1.2914581e-05
5.293211e-06
6.3799227e-07
1.0574296e-05
1.3486792e-05
1.4473517e-05
1.5186448e-05
1.581193e-05
1.6658928e-05
1.7763595e-05
1.9357277e-05
2.1269041e-05
2.292852e-05
2.3699743e-05
2.3517267e-05
2.2563675e-05
2.1261822e-05
1.9961535e-05
1.8594172e-05
1.7051504e-05
1.5261955e-05
1.308854e-05
7.1448755e-06
9.9197842e-06
1.425417e-05
1.5589833e-05
1.6129782e-05
1.6635193e-05
1.7193371e-05
1.8052321e-05
1.9400849e-05
2.1476434e-05
2.3805755e-05
2.5692962e-05
2.6747102e-05
2.6233184e-05
2.4696847e-05
2.2881935e-05
2.0925607e-05
1.9193973e-05
1.7697863e-05
1.6251098e-05
1.4553749e-05
1.2300381e-05
5.1702225e-06
7.097103e-06
1.4265752e-05
1.6371051e-05
1.7154754e-05
1.7643304e-05
1.8232369e-05
1.8857625e-05
1.9745827e-05
2.1266207e-05
2.3655982e-05
2.6217851e-05
2.8806324e-05
3.0248921e-05
2.9401493e-05
2.7126219e-05
2.4598003e-05
2.2189982e-05
1.9967808e-05
1.8196498e-05
1.6748678e-05
1.5236651e-05
1.3367638e-05
1.0205001e-05
1.5634984e-06
6.9902742e-07
1.3777188e-05
1.7143083e-05
1.8134695e-05
1.8797194e-05
1.9514816e-05
2.0319858e-05
2.1016832e-05
2.1765596e-05
2.3121902e-05
2.5290217e-05
2.818795e-05
3.1393971e-05
3.3170514e-05
3.2087399e-05
2.9232024e-05
2.6109801e-05
2.3397427e-05
2.0853245e-05
1.880896e-05
1.7248069e-05
1.5880012e-05
1.4240334e-05
1.2397639e-05
8.9948162e-06
1.0221168e-05
1.7402288e-05
1.9086385e-05
1.9837441e-05
2.0741478e-05
2.1947441e-05
2.3038937e-05
2.3732822e-05
2.4142588e-05
2.4784803e-05
2.6361314e-05
2.904336e-05
3.2371663e-05
3.4209133e-05
3.3063842e-05
3.010075e-05
2.6881292e-05
2.410807e-05
2.1594232e-05
1.9493218e-05
1.7841229e-05
1.6483883e-05
1.5064337e-05
1.3359111e-05
1.1149791e-05
1.9042888e-06
1.5128996e-05
1.898911e-05
2.0380894e-05
2.1463028e-05
2.297237e-05
2.4545081e-05
2.6010467e-05
2.6809782e-05
2.6705123e-05
2.6381489e-05
2.6734912e-05
2.8368814e-05
3.1015181e-05
3.2483166e-05
3.1612924e-05
2.9285161e-05
2.6718106e-05
2.4472413e-05
2.2350814e-05
2.0454702e-05
1.8777961e-05
1.7317987e-05
1.5991954e-05
1.4436446e-05
1.2432395e-05
7.7515991e-06
1.8090369e-06
1.7729305e-05
2.014379e-05
2.146055e-05
2.3105211e-05
2.513075e-05
2.7561817e-05
2.9712047e-05
3.067422e-05
2.9887889e-05
2.8265206e-05
2.6783709e-05
2.6287096e-05
2.7578449e-05
2.865796e-05
2.8542621e-05
2.7537354e-05
2.6273152e-05
2.5036272e-05
2.3700189e-05
2.2076569e-05
2.026636e-05
1.8536289e-05
1.7035626e-05
1.5666078e-05
1.4062875e-05
1.1823371e-05
1.2988369e-05
1.9444508e-05
2.0759047e-05
2.2328113e-05
2.4484937e-05
2.7423876e-05
3.0853405e-05
3.3811613e-05
3.4970162e-05
3.3367817e-05
3.0290136e-05
2.6900483e-05
2.3783893e-05
2.2053268e-05
2.3069587e-05
2.4300827e-05
2.546856e-05
2.6326354e-05
2.6381805e-05
2.5707693e-05
2.4353543e-05
2.2456167e-05
2.0274851e-05
1.8376441e-05
1.6995088e-05
1.5954829e-05
1.5457493e-05
1.5535577e-06
1.5065778e-05
1.982856e-05
2.0742498e-05
2.2638222e-05
2.5277929e-05
2.8900518e-05
3.307752e-05
3.6649367e-05
3.7971028e-05
3.5761108e-05
3.1652643e-05
2.7137974e-05
2.4922603e-05
1.8707163e-05
2.0431119e-05
2.2325785e-05
2.4819216e-05
2.7480349e-05
2.8721596e-05
2.8498058e-05
2.6979524e-05
2.4742538e-05
2.2276095e-05
1.988088e-05
1.8207322e-05
1.7241945e-05
1.7591898e-05
3.8632791e-06
1.3300845e-05
1.8646441e-05
2.0157898e-05
2.221319e-05
2.5004904e-05
2.8608879e-05
3.27038e-05
3.6183412e-05
3.7564965e-05
3.5513201e-05
3.1306796e-05
2.5912095e-05
2.042615e-05
1.6342601e-06
4.8917513e-06
2.0211593e-05
2.5346386e-05
2.9328374e-05
3.1574633e-05
3.1578184e-05
2.9691993e-05
2.6830098e-05
2.3918448e-05
2.1222272e-05
1.9169537e-05
1.7850607e-05
1.6321487e-05
4.1288687e-06
1.3772365e-05
1.8126755e-05
1.9264929e-05
2.1095876e-05
2.3771703e-05
2.6773458e-05
3.0090202e-05
3.2837631e-05
3.3948112e-05
3.2690054e-05
2.9712791e-05
2.5517227e-05
2.306671e-05
8.6738547e-06
1.6696308e-05
2.2339187e-05
2.6622778e-05
3.0829541e-05
3.3468144e-05
3.3503606e-05
3.1335113e-05
2.8053873e-05
2.4766921e-05
2.1979016e-05
1.9915243e-05
1.8836823e-05
1.8111436e-05
4.5719855e-06
1.2907009e-05
1.7150191e-05
1.8015097e-05
1.9533668e-05
2.1868302e-05
2.4397723e-05
2.6898755e-05
2.8984028e-05
3.0042711e-05
2.9803245e-05
2.8693634e-05
2.6605647e-05
2.6186777e-05
2.3629074e-05
2.3679311e-05
2.4457963e-05
2.7142032e-05
3.0355659e-05
3.2378754e-05
3.2256864e-05
3.022454e-05
2.7242863e-05
2.4291556e-05
2.1738106e-05
2.000974e-05
1.9163132e-05
1.8590149e-05
3.5468669e-06
4.9724002e-06
1.4694814e-05
1.6380671e-05
1.7873406e-05
1.975162e-05
2.1954151e-05
2.4097695e-05
2.5832896e-05
2.7145811e-05
2.8088541e-05
2.9094399e-05
2.9851144e-05
3.034553e-05
2.9358925e-05
2.7972339e-05
2.7003874e-05
2.7368245e-05
2.8672972e-05
2.9631558e-05
2.9313697e-05
2.7690617e-05
2.5399451e-05
2.3123431e-05
2.1124379e-05
1.9793196e-05
1.8619737e-05
1.561881e-05
1.4720287e-06
1.3077094e-06
1.2181866e-05
1.4620682e-05
1.6414049e-05
1.8009906e-05
1.9779729e-05
2.1721737e-05
2.3631548e-05
2.5414662e-05
2.7453142e-05
3.0072622e-05
3.3032134e-05
3.500031e-05
3.4149106e-05
3.1607265e-05
2.9003382e-05
2.7415707e-05
2.6919635e-05
2.6792568e-05
2.6223173e-05
2.4962936e-05
2.3309102e-05
2.154645e-05
2.0248072e-05
1.9293276e-05
1.7604218e-05
1.2423131e-05
9.0975855e-06
1.3098258e-05
1.5106521e-05
1.6726648e-05
1.8240318e-05
1.9993856e-05
2.2061625e-05
2.4431376e-05
2.7231514e-05
3.0906231e-05
3.5112642e-05
3.8159893e-05
3.7210249e-05
3.3765871e-05
3.0038459e-05
2.7186254e-05
2.54568e-05
2.4470906e-05
2.3617977e-05
2.2458715e-05
2.1139696e-05
2.002814e-05
1.927943e-05
1.8419374e-05
1.6301455e-05
5.37125e-06
5.7698909e-06
1.201862e-05
1.3988595e-05
1.5769496e-05
1.7254605e-05
1.8884253e-05
2.0945817e-05
2.3562541e-05
2.6532723e-05
3.035947e-05
3.4668776e-05
3.7811216e-05
3.6974424e-05
3.3512649e-05
2.9592924e-05
2.6333206e-05
2.4070352e-05
2.2419587e-05
2.1226553e-05
2.0200923e-05
1.9297628e-05
1.8637456e-05
1.8010951e-05
1.6948781e-05
1.3539465e-05
1.2575117e-06
9.3588669e-06
1.2819887e-05
1.4846173e-05
1.6540168e-05
1.8079584e-05
1.9968803e-05
2.2481061e-05
2.5193192e-05
2.8531444e-05
3.2183483e-05
3.4836862e-05
3.4198097e-05
3.131024e-05
2.788056e-05
2.486207e-05
2.2433231e-05
2.0565139e-05
1.9299399e-05
1.8424098e-05
1.7793666e-05
1.7240794e-05
1.6311355e-05
1.4251986e-05
6.3299776e-06
2.1460292e-06
1.1622966e-05
1.396765e-05
1.5895923e-05
1.7467155e-05
1.9121536e-05
2.1183675e-05
2.3579544e-05
2.6121107e-05
2.8803418e-05
3.0727201e-05
3.0280678e-05
2.8142815e-05
2.5484256e-05
2.293112e-05
2.0614771e-05
1.8878434e-05
1.7735672e-05
1.698579e-05
1.6412217e-05
1.5643578e-05
1.4529955e-05
1.0127661e-05
5.6990494e-07
5.9910136e-06
1.2812897e-05
1.4996612e-05
1.6808031e-05
1.8442449e-05
2.0132842e-05
2.196594e-05
2.3862378e-05
2.5558154e-05
2.6740665e-05
2.6439428e-05
2.4964851e-05
2.2964419e-05
2.0723478e-05
1.8783087e-05
1.7338579e-05
1.6350268e-05
1.5544206e-05
1.4751206e-05
1.4002482e-05
1.1952108e-05
2.4523976e-06
7.4645627e-06
1.3372665e-05
1.5643257e-05
1.7708384e-05
1.9402493e-05
2.0716164e-05
2.1992374e-05
2.301185e-05
2.3651079e-05
2.3383275e-05
2.215635e-05
2.0463265e-05
1.8672549e-05
1.7124044e-05
1.5895699e-05
1.4818785e-05
1.3735353e-05
1.2967646e-05
1.1595549e-05
3.735222e-06
5.3102969e-06
1.2156947e-05
1.5972894e-05
1.8383316e-05
1.9722679e-05
2.0623826e-05
2.1156816e-05
2.1434537e-05
2.1083711e-05
2.0029554e-05
1.8615594e-05
1.705242e-05
1.5542478e-05
1.4057819e-05
1.2754007e-05
1.1157505e-05
9.0749118e-06
2.3941834e-06
1.7310318e-06
1.0135095e-05
1.5715889e-05
1.7798992e-05
1.9135759e-05
2.002235e-05
2.0385224e-05
2.0040382e-05
1.9040504e-05
1.7534465e-05
1.560757e-05
1.3499032e-05
1.1659201e-05
1.0095429e-05
5.2916392e-06
6.6113397e-07
2.3265342e-06
1.0321669e-05
1.4599451e-05
1.8204762e-05
2.0256366e-05
2.0462047e-05
1.960695e-05
1.7613206e-05
1.4049224e-05
9.9107863e-06
4.5201553e-06
1.3862154e-06
1.4854123e-06
4.7608541e-06
5.1848606e-06
4.9373951e-06
2.5030368e-06
1.5386349e-06
1.7986959e-06
6.3509376e-06
2.3650116e-05
3.5019209e-05
3.7075331e-05
3.6578596e-05
3.2198036e-05
8.3956568e-06
3.7677158e-06
4.7680792e-06
3.3396497e-05
3.9197465e-05
4.4724831e-05
5.0017858e-05
5.3664258e-05
5.5818837e-05
5.644285e-05
5.5286354e-05
5.1452095e-05
4.6779736e-05
3.9926217e-05
1.5799506e-05
1.7897046e-06
2.2565607e-06
2.7377658e-05
3.8950916e-05
4.2401578e-05
4.6169293e-05
4.9998073e-05
5.4044632e-05
5.7583486e-05
6.0219734e-05
6.1428212e-05
6.1012732e-05
5.92292e-05
5.6492693e-05
5.258337e-05
4.616703e-05
2.8951857e-05
5.6183635e-06
3.1310891e-06
3.7249134e-05
4.2310243e-05
4.5349135e-05
4.7902641e-05
5.0902823e-05
5.4343725e-05
5.8261579e-05
6.2010487e-05
6.4880378e-05
6.6119328e-05
6.5452152e-05
6.3516132e-05
6.0885858e-05
5.7664675e-05
5.329468e-05
4.7092621e-05
3.899128e-05
1.4051073e-05
3.0710466e-06
3.9427297e-05
4.5840143e-05
4.8224287e-05
5.034815e-05
5.2517854e-05
5.5352719e-05
5.8964608e-05
6.3305723e-05
6.762465e-05
7.0902559e-05
7.2118576e-05
7.0848504e-05
6.7973992e-05
6.4435789e-05
6.0684018e-05
5.6627221e-05
5.207242e-05
4.6970377e-05
3.9509441e-05
1.5305102e-05
2.1913975e-06
3.8562014e-05
4.7882967e-05
5.1082779e-05
5.3045591e-05
5.4952568e-05
5.702579e-05
5.9792117e-05
6.3630001e-05
6.8510616e-05
7.3476407e-05
7.7396409e-05
7.8785507e-05
7.6944979e-05
7.3001629e-05
6.8379446e-05
6.3626114e-05
5.9063336e-05
5.4670132e-05
5.0197475e-05
4.5047993e-05
3.7255549e-05
1.3410957e-05
2.7778356e-05
4.7936335e-05
5.3212825e-05
5.5809533e-05
5.7853695e-05
5.9850666e-05
6.1815247e-05
6.4274151e-05
6.8002985e-05
7.3126306e-05
7.8722353e-05
8.343932e-05
8.5066349e-05
8.2788121e-05
7.792812e-05
7.226159e-05
6.6658924e-05
6.1412758e-05
5.6682169e-05
5.2248484e-05
4.7603315e-05
4.1517295e-05
2.8153336e-05
2.7647423e-06
5.0747811e-06
4.7177699e-05
5.4661804e-05
5.8026824e-05
6.0607312e-05
6.3088859e-05
6.5329267e-05
6.7090818e-05
6.8826804e-05
7.1735143e-05
7.644239e-05
8.2276096e-05
8.7538524e-05
8.9551216e-05
8.6856511e-05
8.1464142e-05
7.523509e-05
6.9204029e-05
6.3636511e-05
5.8714306e-05
5.4251456e-05
4.9912751e-05
4.5005375e-05
3.8473427e-05
2.4567441e-05
4.0161432e-05
5.4083842e-05
5.9314853e-05
6.2492676e-05
6.5639072e-05
6.8865174e-05
7.147806e-05
7.2990091e-05
7.3601618e-05
7.4752386e-05
7.786701e-05
8.2919198e-05
8.8085449e-05
8.9986313e-05
8.7620795e-05
8.2454288e-05
7.6483388e-05
7.0768044e-05
6.5565577e-05
6.0911165e-05
5.6542328e-05
5.22878e-05
4.780012e-05
4.2124793e-05
3.2614711e-05
3.4787543e-06
1.9009302e-06
4.8004907e-05
5.8217781e-05
6.2899446e-05
6.6696389e-05
7.0846676e-05
7.4970835e-05
7.8137429e-05
7.9456149e-05
7.8787599e-05
7.741559e-05
7.733993e-05
7.9687372e-05
8.3876923e-05
8.5860798e-05
8.4342943e-05
8.0471568e-05
7.6006496e-05
7.1786586e-05
6.7772816e-05
6.3760522e-05
5.9590362e-05
5.5302772e-05
5.0894203e-05
4.5973265e-05
3.8258284e-05
1.7490099e-05
5.8138707e-06
5.288878e-05
6.1241718e-05
6.5939849e-05
7.0690651e-05
7.6034562e-05
8.1231482e-05
8.5016266e-05
8.6173992e-05
8.4227572e-05
8.0163911e-05
7.5642036e-05
7.285555e-05
7.3647152e-05
7.6364513e-05
7.7113199e-05
7.635788e-05
7.5135236e-05
7.359197e-05
7.1215544e-05
6.782014e-05
6.3616394e-05
5.9023324e-05
5.4397029e-05
4.9876152e-05
4.3921905e-05
2.9724886e-05
2.371026e-05
5.6675644e-05
6.3278324e-05
6.8335676e-05
7.4093229e-05
8.0569202e-05
8.6798838e-05
9.1160861e-05
9.2166351e-05
8.9045345e-05
8.2610714e-05
7.3493554e-05
6.4591632e-05
5.8569527e-05
6.269712e-05
6.7193793e-05
7.2232736e-05
7.5804453e-05
7.7246801e-05
7.6162347e-05
7.300698e-05
6.8481121e-05
6.3304005e-05
5.8206013e-05
5.3787405e-05
4.927828e-05
3.9579723e-05
2.0590307e-06
3.4216994e-05
5.7511985e-05
6.3870919e-05
6.9364351e-05
7.5805285e-05
8.2968172e-05
8.9748427e-05
9.4509076e-05
9.5351327e-05
9.1470236e-05
8.3632686e-05
7.0968273e-05
5.8520463e-05
4.293665e-05
4.7924512e-05
6.0743032e-05
7.0774418e-05
7.8868592e-05
8.236521e-05
8.1901036e-05
7.8488229e-05
7.3305236e-05
6.7463044e-05
6.1745277e-05
5.7031053e-05
5.240272e-05
4.5334829e-05
4.9791357e-06
4.5318471e-05
5.6316619e-05
6.2603548e-05
6.8459156e-05
7.5037387e-05
8.2067996e-05
8.873497e-05
9.314708e-05
9.3923978e-05
9.0215887e-05
8.2013596e-05
6.6510383e-05
4.7580109e-05
2.5130134e-06
1.3236389e-05
5.770494e-05
7.2298383e-05
8.2840928e-05
8.7309455e-05
8.7007866e-05
8.3077721e-05
7.7125347e-05
7.0622348e-05
6.4408663e-05
5.911339e-05
5.3701631e-05
4.3425445e-05
4.9526322e-06
3.3350091e-05
5.4698173e-05
6.0254506e-05
6.5664527e-05
7.187122e-05
7.8163329e-05
8.3845255e-05
8.7694425e-05
8.8574999e-05
8.5894168e-05
7.9689759e-05
6.9613784e-05
5.460912e-05
1.9687023e-05
3.8771433e-05
6.4234279e-05
7.5766977e-05
8.5131751e-05
8.9380479e-05
8.9118878e-05
8.4748458e-05
7.852176e-05
7.1783364e-05
6.5561054e-05
6.0382111e-05
5.506135e-05
4.6049411e-05
5.405442e-06
3.0856058e-05
5.1097005e-05
5.6495405e-05
6.1650738e-05
6.7365127e-05
7.2919919e-05
7.7837155e-05
8.1336357e-05
8.2749329e-05
8.1877761e-05
7.9313382e-05
7.5811942e-05
7.2239884e-05
6.6302949e-05
6.723544e-05
7.0536623e-05
7.7207316e-05
8.3765055e-05
8.6900907e-05
8.6196679e-05
8.2224768e-05
7.6439555e-05
7.0285731e-05
6.4704915e-05
5.9926825e-05
5.412498e-05
4.46445e-05
3.9216552e-06
9.0237407e-06
4.5346189e-05
5.1952031e-05
5.7115174e-05
6.2355978e-05
6.7418817e-05
7.1908633e-05
7.5467998e-05
7.8009841e-05
7.9832261e-05
8.1716363e-05
8.3534367e-05
8.4138587e-05
8.1962699e-05
7.8834883e-05
7.7070081e-05
7.7849148e-05
8.0329619e-05
8.1757077e-05
8.0702273e-05
7.723639e-05
7.2371695e-05
6.7272116e-05
6.2645875e-05
5.8132535e-05
5.0614729e-05
3.5325892e-05
4.3977425e-06
3.9269878e-05
4.7380058e-05
5.278374e-05
5.7705852e-05
6.2416549e-05
6.6862707e-05
7.1021544e-05
7.5119137e-05
7.9636315e-05
8.4671953e-05
8.9427416e-05
9.1797567e-05
9.0168853e-05
8.569783e-05
8.1087292e-05
7.7966265e-05
7.6718534e-05
7.6127873e-05
7.4548881e-05
7.1532836e-05
6.761907e-05
6.3575938e-05
5.9855457e-05
5.5392069e-05
4.6289069e-05
2.7800391e-05
3.3173074e-05
4.2950162e-05
4.8935376e-05
5.381564e-05
5.8444142e-05
6.3088153e-05
6.797544e-05
7.3398762e-05
7.9556482e-05
8.6182305e-05
9.2307603e-05
9.5590545e-05
9.4017832e-05
8.864981e-05
8.2623055e-05
7.7317668e-05
7.3535501e-05
7.1068845e-05
6.8821574e-05
6.6009433e-05
6.2829713e-05
5.9724212e-05
5.6510961e-05
5.1456019e-05
3.9639956e-05
5.8417387e-06
1.6627485e-05
3.8788771e-05
4.5518007e-05
5.0701701e-05
5.5393824e-05
6.0194682e-05
6.5451609e-05
7.139565e-05
7.7969014e-05
8.4898916e-05
9.1246618e-05
9.4751777e-05
9.3369213e-05
8.7889102e-05
8.1489096e-05
7.5364981e-05
7.0352335e-05
6.6605741e-05
6.3684672e-05
6.0949769e-05
5.8298397e-05
5.5639222e-05
5.2127105e-05
4.5375302e-05
3.4140168e-05
1.6134433e-06
1.6401502e-06
2.858973e-05
4.149353e-05
4.7841967e-05
5.2819764e-05
5.7643287e-05
6.2824899e-05
6.858573e-05
7.4725044e-05
8.1092261e-05
8.6895925e-05
8.998959e-05
8.8844629e-05
8.405682e-05
7.8078882e-05
7.2058552e-05
6.6712734e-05
6.2434657e-05
5.912996e-05
5.6407664e-05
5.3958959e-05
5.1108411e-05
4.6024884e-05
3.1412598e-05
1.6706188e-05
5.2839409e-06
3.7210102e-05
4.4793653e-05
5.0315356e-05
5.51998e-05
6.0086857e-05
6.5217541e-05
7.0553826e-05
7.5886251e-05
8.0579671e-05
8.3199172e-05
8.2224068e-05
7.8345562e-05
7.3164245e-05
6.7677252e-05
6.2524609e-05
5.8222838e-05
5.4840688e-05
5.2072303e-05
4.9494621e-05
4.5924278e-05
3.9222328e-05
2.5227074e-05
1.5357066e-05
3.9634099e-05
4.6770387e-05
5.2261156e-05
5.7285351e-05
6.1913095e-05
6.6312871e-05
7.0514024e-05
7.4071107e-05
7.6021568e-05
7.519559e-05
7.2049764e-05
6.7639777e-05
6.2680088e-05
5.7945011e-05
5.3836601e-05
5.0447932e-05
4.7386798e-05
4.418701e-05
3.9453684e-05
3.0950328e-05
2.5199768e-06
1.5508745e-05
3.9410833e-05
4.7101886e-05
5.3674173e-05
5.8548187e-05
6.2378193e-05
6.5670039e-05
6.8267911e-05
6.956414e-05
6.8751966e-05
6.5965021e-05
6.2021942e-05
5.7521025e-05
5.3115716e-05
4.9104852e-05
4.5469156e-05
4.1164935e-05
3.6972144e-05
3.0669041e-05
2.8437777e-06
1.2920897e-05
3.0066854e-05
4.6531837e-05
5.3322363e-05
5.7713125e-05
6.0939046e-05
6.3243865e-05
6.4219143e-05
6.3395497e-05
6.0848758e-05
5.7108944e-05
5.2517609e-05
4.7777654e-05
4.319813e-05
3.8739587e-05
2.7363769e-05
2.4373417e-05
2.5866739e-06
2.9312644e-06
2.5057019e-05
4.0997726e-05
4.8054656e-05
5.281766e-05
5.6786462e-05
5.830864e-05
5.7884545e-05
5.5878435e-05
5.1933633e-05
4.5870228e-05
3.9517837e-05
3.3229371e-05
3.0958819e-05
1.4028566e-05
3.6555013e-06
1.9856032e-05
3.1912199e-05
4.1745724e-05
4.8337871e-05
4.9981369e-05
4.8963218e-05
4.4822292e-05
3.4840385e-05
2.5220089e-05
6.4018466e-06
1.6695689e-06
2.1358563e-06
5.3690594e-06
5.940308e-06
5.8472346e-06
4.0253707e-06
2.1581791e-06
6.3811085e-06
2.7218824e-05
4.3999223e-05
4.6203377e-05
4.5498647e-05
4.0143755e-05
8.3068566e-06
4.3463573e-06
6.0999654e-06
4.6164103e-05
5.39449e-05
6.0349496e-05
6.6679438e-05
7.0983209e-05
7.3150064e-05
7.3324925e-05
7.1451822e-05
6.6086509e-05
6.0036867e-05
5.050413e-05
2.0338149e-05
2.2562227e-06
2.4864358e-06
3.591937e-05
5.4540684e-05
6.0087461e-05
6.5079885e-05
6.9935936e-05
7.4648886e-05
7.8485222e-05
8.1065295e-05
8.2009539e-05
8.1208474e-05
7.8799138e-05
7.5205584e-05
6.991254e-05
6.0699048e-05
3.5587912e-05
6.1423856e-06
3.5112904e-06
5.0845549e-05
5.9507732e-05
6.4141948e-05
6.7770635e-05
7.1543678e-05
7.5536141e-05
7.9568239e-05
8.2971764e-05
8.5272438e-05
8.6156031e-05
8.5625489e-05
8.3915776e-05
8.1288351e-05
7.7611408e-05
7.2104011e-05
6.3500963e-05
5.1640045e-05
1.7530669e-05
3.4288942e-06
5.2967939e-05
6.4035184e-05
6.7793341e-05
7.0731067e-05
7.3524977e-05
7.6748636e-05
8.0389488e-05
8.4071802e-05
8.7127251e-05
8.9182198e-05
8.9870246e-05
8.9172404e-05
8.7278154e-05
8.4664544e-05
8.134986e-05
7.7077489e-05
7.1566446e-05
6.4789899e-05
5.3300363e-05
1.8283537e-05
2.3560647e-06
5.073644e-05
6.5928253e-05
7.0986463e-05
7.3773947e-05
7.6128625e-05
7.84998e-05
8.1330252e-05
8.4699997e-05
8.8193327e-05
9.1270307e-05
9.3520524e-05
9.4122592e-05
9.3095698e-05
9.0637574e-05
8.7522787e-05
8.4032262e-05
7.9984614e-05
7.5311088e-05
6.9878913e-05
6.2910343e-05
5.104656e-05
1.725347e-05
3.3919372e-05
6.4243709e-05
7.2886031e-05
7.6543827e-05
7.8960723e-05
8.1054849e-05
8.3079698e-05
8.5462784e-05
8.8522572e-05
9.1960018e-05
9.5203666e-05
9.7838734e-05
9.8485474e-05
9.7090274e-05
9.4001141e-05
9.0317574e-05
8.6446944e-05
8.2312806e-05
7.7788268e-05
7.2822188e-05
6.6933283e-05
5.8385319e-05
3.7420986e-05
3.3069947e-06
6.2029568e-06
6.1722536e-05
7.35863e-05
7.8505873e-05
8.1372754e-05
8.3613012e-05
8.5563908e-05
8.7299417e-05
8.9203395e-05
9.1809839e-05
9.5001587e-05
9.8178537e-05
0.00010102336
0.00010174022
0.00010005983
9.6582858e-05
9.2609828e-05
8.8541062e-05
8.4388298e-05
7.9996902e-05
7.5320696e-05
7.0147519e-05
6.3639395e-05
5.396311e-05
3.3198342e-05
5.0363884e-05
7.1414726e-05
7.9241031e-05
8.2914946e-05
8.5467941e-05
8.7740395e-05
8.9727555e-05
9.1245483e-05
9.2579346e-05
9.4351381e-05
9.6766084e-05
9.9421946e-05
0.00010191763
0.00010253349
0.00010096315
9.7709244e-05
9.4001025e-05
9.0179077e-05
8.6276029e-05
8.2235297e-05
7.7916434e-05
7.317168e-05
6.7549068e-05
5.9746064e-05
4.5361565e-05
4.3626891e-06
2.0483512e-06
6.1069867e-05
7.6926849e-05
8.3076621e-05
8.6301424e-05
8.9020539e-05
9.1698224e-05
9.3872933e-05
9.5111375e-05
9.5651748e-05
9.5958129e-05
9.6560272e-05
9.7832115e-05
9.9706615e-05
0.0001004991
9.9543495e-05
9.7254854e-05
9.4525864e-05
9.1576003e-05
8.8357827e-05
8.4863202e-05
8.097456e-05
7.6571192e-05
7.1442881e-05
6.480842e-05
5.2885503e-05
2.1453525e-05
6.0111494e-06
6.7546072e-05
8.0711667e-05
8.5815555e-05
8.9037645e-05
9.2313266e-05
9.567762e-05
9.8274683e-05
9.9244905e-05
9.877014e-05
9.7033875e-05
9.4151707e-05
9.102845e-05
9.1158086e-05
9.352087e-05
9.4710569e-05
9.48933e-05
9.4509222e-05
9.3272151e-05
9.1036923e-05
8.8025193e-05
8.4425823e-05
8.0271884e-05
7.5476843e-05
6.9731012e-05
5.9624349e-05
3.7369461e-05
2.7061879e-05
7.2993065e-05
8.3233621e-05
8.7632747e-05
9.1122006e-05
9.5100892e-05
9.9361987e-05
0.00010258851
0.00010336581
0.00010179003
9.7987927e-05
9.0761721e-05
8.0499674e-05
7.3035186e-05
7.851535e-05
8.4873094e-05
9.1031787e-05
9.48004e-05
9.5587258e-05
9.4220068e-05
9.1466564e-05
8.7884113e-05
8.3877788e-05
7.9385563e-05
7.4311438e-05
6.6165396e-05
5.1220742e-05
2.4684747e-06
4.2698239e-05
7.5049739e-05
8.4056453e-05
8.8266996e-05
9.202703e-05
9.6531305e-05
0.00010145565
0.00010512753
0.00010575966
0.0001034814
9.8364106e-05
8.6876747e-05
7.4131774e-05
5.31239e-05
6.067348e-05
7.6275714e-05
8.8602908e-05
9.6331577e-05
9.8399134e-05
9.752739e-05
9.4796197e-05
9.098391e-05
8.686097e-05
8.2587099e-05
7.7778819e-05
7.0482447e-05
5.9941834e-05
5.7613063e-06
5.7150074e-05
7.4951095e-05
8.3140507e-05
8.7619474e-05
9.1615823e-05
9.6136258e-05
0.00010086608
0.00010428296
0.00010491276
0.00010289335
9.7309683e-05
8.1684794e-05
5.8367429e-05
2.8144553e-06
1.6070939e-05
7.2070389e-05
8.9709337e-05
9.8783836e-05
0.00010127182
0.00010058474
9.7568519e-05
9.332387e-05
8.8915776e-05
8.4731469e-05
7.9970203e-05
7.2185189e-05
5.5316149e-05
5.5187491e-06
4.2399518e-05
7.2924095e-05
8.0922283e-05
8.5672343e-05
8.9746805e-05
9.3882676e-05
9.7840306e-05
0.00010069669
0.00010170158
0.00010080714
9.6715598e-05
8.6164958e-05
6.7948584e-05
2.2656956e-05
4.8233416e-05
7.9962084e-05
9.3454618e-05
0.00010037942
0.00010231005
0.00010151123
9.8341481e-05
9.3994301e-05
8.9616661e-05
8.5606615e-05
8.0995218e-05
7.2369307e-05
6.0756926e-05
6.0654099e-06
3.9336913e-05
6.8146367e-05
7.7144503e-05
8.2471226e-05
8.6864692e-05
9.0839534e-05
9.4482903e-05
9.7328768e-05
9.9041173e-05
9.939171e-05
9.7722233e-05
9.3722393e-05
8.8306262e-05
8.1269323e-05
8.2959715e-05
8.8350065e-05
9.5753051e-05
0.00010012618
0.00010116974
0.00010004994
9.7005639e-05
9.2926057e-05
8.8814038e-05
8.4989255e-05
8.0218147e-05
7.0460366e-05
5.7537264e-05
5.0364181e-06
9.0505345e-06
6.1225173e-05
7.2080961e-05
7.8248869e-05
8.3184299e-05
8.7326846e-05
9.0993335e-05
9.4170106e-05
9.6716161e-05
9.8447637e-05
9.9269216e-05
9.9457026e-05
9.8929883e-05
9.6878366e-05
9.4994361e-05
9.4912721e-05
9.6741178e-05
9.8278884e-05
9.8210901e-05
9.6713475e-05
9.3926552e-05
9.039989e-05
8.68244e-05
8.3167276e-05
7.7841206e-05
6.5606374e-05
4.3279459e-05
4.6967904e-06
5.4060269e-05
6.6534843e-05
7.3591756e-05
7.902056e-05
8.3546335e-05
8.7485061e-05
9.1080203e-05
9.44047e-05
9.7322444e-05
9.9972426e-05
0.00010249846
0.00010369752
0.00010260844
9.9748801e-05
9.7606511e-05
9.6563678e-05
9.5838714e-05
9.4686725e-05
9.2823956e-05
9.0223863e-05
8.7190752e-05
8.4036109e-05
8.0362424e-05
7.423942e-05
5.9914527e-05
3.4011149e-05
4.607085e-05
6.0846192e-05
6.8965511e-05
7.4912097e-05
7.9889609e-05
8.4307123e-05
8.839638e-05
9.2306876e-05
9.6028982e-05
9.9847019e-05
0.00010375527
0.00010591376
0.00010486607
0.00010116067
9.7943711e-05
9.5406152e-05
9.313263e-05
9.0992039e-05
8.8777705e-05
8.6288648e-05
8.3539605e-05
8.0528826e-05
7.6534547e-05
6.8935813e-05
5.0571979e-05
6.5517366e-06
2.2479636e-05
5.4522499e-05
6.4366007e-05
7.1148394e-05
7.6623232e-05
8.1511427e-05
8.6010167e-05
9.021292e-05
9.4302519e-05
9.8566781e-05
0.00010286159
0.00010528535
0.00010436671
0.00010051096
9.6738242e-05
9.3388016e-05
9.0204979e-05
8.7315247e-05
8.4696535e-05
8.209091e-05
7.9353584e-05
7.6133107e-05
7.1023871e-05
6.018884e-05
4.5600371e-05
1.9846323e-06
2.2494333e-06
3.8279154e-05
5.8522434e-05
6.7314169e-05
7.3546167e-05
7.8838617e-05
8.3601961e-05
8.7861391e-05
9.1865592e-05
9.5841162e-05
9.9582993e-05
0.00010163469
0.00010100171
9.7801441e-05
9.4192207e-05
9.0589191e-05
8.7011241e-05
8.3599203e-05
8.0491153e-05
7.7595376e-05
7.4623609e-05
7.0608558e-05
6.2757796e-05
3.9851033e-05
2.0692836e-05
6.0079188e-06
5.123274e-05
6.2711734e-05
7.0122742e-05
7.5959363e-05
8.0994594e-05
8.5299909e-05
8.8998002e-05
9.2382863e-05
9.5286065e-05
9.674782e-05
9.6317882e-05
9.3910576e-05
9.071681e-05
8.7168298e-05
8.3384986e-05
7.9541449e-05
7.5980881e-05
7.2672797e-05
6.914178e-05
6.3749021e-05
5.2807652e-05
3.3019155e-05
1.9393512e-05
5.3752668e-05
6.4705502e-05
7.1897786e-05
7.7816857e-05
8.2469156e-05
8.6090946e-05
8.9001097e-05
9.124622e-05
9.2272719e-05
9.185098e-05
8.9846828e-05
8.6889598e-05
8.3255748e-05
7.9111852e-05
7.485426e-05
7.0824972e-05
6.6745255e-05
6.2021115e-05
5.378287e-05
4.1473988e-05
3.0119535e-06
1.8454448e-05
5.2527625e-05
6.3752463e-05
7.2648571e-05
7.8558987e-05
8.2657544e-05
8.5656029e-05
8.7709546e-05
8.8579153e-05
8.8016737e-05
8.5969535e-05
8.2746883e-05
7.8576487e-05
7.3907523e-05
6.9147893e-05
6.4309957e-05
5.809571e-05
5.1182345e-05
4.1616143e-05
3.2586894e-06
1.5848836e-05
3.7150357e-05
6.1317142e-05
7.0817342e-05
7.6529925e-05
8.0508375e-05
8.3294997e-05
8.4515321e-05
8.3948071e-05
8.1601377e-05
7.7769671e-05
7.2693779e-05
6.7034377e-05
6.1201375e-05
5.4613139e-05
3.7199973e-05
3.3105458e-05
3.1269484e-06
3.3001321e-06
3.2508909e-05
5.1656709e-05
6.1544215e-05
6.7638845e-05
7.310772e-05
7.5275178e-05
7.5334782e-05
7.3373106e-05
6.8937454e-05
6.1764853e-05
5.4193141e-05
4.6214913e-05
4.4047261e-05
1.888421e-05
4.3291473e-06
2.3404177e-05
3.8693333e-05
5.2473785e-05
6.2136522e-05
6.4491965e-05
6.3534474e-05
5.8408825e-05
4.3514167e-05
3.2855091e-05
7.3478888e-06
2.1034848e-06
2.4986207e-06
6.0666219e-06
6.6408144e-06
6.5884918e-06
5.2414041e-06
2.3929822e-06
6.8350305e-06
2.973621e-05
4.8539804e-05
5.090432e-05
5.0019358e-05
4.3965212e-05
8.750253e-06
4.6062643e-06
6.8232393e-06
5.5237153e-05
6.5089934e-05
7.1692547e-05
7.8694796e-05
8.3158817e-05
8.5063309e-05
8.4740136e-05
8.2127778e-05
7.5724924e-05
6.86885e-05
5.6999161e-05
2.2748645e-05
2.4229621e-06
2.7065992e-06
4.2333031e-05
6.6503258e-05
7.4202169e-05
7.9923044e-05
8.5000186e-05
8.9626047e-05
9.3129603e-05
9.5229031e-05
9.5777307e-05
9.4745085e-05
9.205552e-05
8.8022276e-05
8.1772164e-05
7.0352463e-05
3.9992773e-05
6.6246021e-06
3.8181149e-06
6.1001797e-05
7.2892847e-05
7.9008935e-05
8.3301289e-05
8.7194342e-05
9.0923383e-05
9.419734e-05
9.6465134e-05
9.7666177e-05
9.8086091e-05
9.7982069e-05
9.7029565e-05
9.5008475e-05
9.1471007e-05
8.5402542e-05
7.5044451e-05
6.0489451e-05
1.9992818e-05
3.7151551e-06
6.285114e-05
7.7792555e-05
8.2876708e-05
8.6275642e-05
8.9161952e-05
9.2080596e-05
9.485403e-05
9.6882133e-05
9.7857528e-05
9.8252488e-05
9.8360312e-05
9.8443716e-05
9.8098879e-05
9.7207111e-05
9.5196882e-05
9.151788e-05
8.5831864e-05
7.8043871e-05
6.3452552e-05
2.1130686e-05
2.5102419e-06
5.9282645e-05
7.9063436e-05
8.5816902e-05
8.9086426e-05
9.1438322e-05
9.3581598e-05
9.5810952e-05
9.7811091e-05
9.8927905e-05
9.9458569e-05
0.00010007897
0.00010016442
9.9766249e-05
9.8881332e-05
9.8009452e-05
9.6783695e-05
9.4286651e-05
9.0283302e-05
8.4767021e-05
7.6688393e-05
6.1435674e-05
2.0120693e-05
3.8012822e-05
7.5415303e-05
8.7012187e-05
9.1333322e-05
9.3617641e-05
9.5334556e-05
9.6995093e-05
9.8813589e-05
0.00010043204
0.00010119024
0.00010177852
0.0001031533
0.00010353497
0.00010242008
0.00010048966
9.9022761e-05
9.787316e-05
9.5974948e-05
9.2717807e-05
8.8201866e-05
8.2010868e-05
7.1754098e-05
4.3966941e-05
3.7114569e-06
6.6631068e-06
7.1198972e-05
8.67139e-05
9.2669231e-05
9.5189454e-05
9.6556112e-05
9.7748967e-05
9.9207531e-05
0.00010110516
0.00010291048
0.00010360192
0.00010405993
0.00010587817
0.00010652646
0.00010486402
0.00010220589
0.00010031422
9.9087052e-05
9.7427672e-05
9.4601991e-05
9.0704354e-05
8.5681814e-05
7.848491e-05
6.6053988e-05
3.8740367e-05
5.6438135e-05
8.3118938e-05
9.2786869e-05
9.6161599e-05
9.7260562e-05
9.792513e-05
9.8866505e-05
0.00010022548
0.00010233277
0.00010469625
0.00010572716
0.00010572192
0.00010681138
0.0001072211
0.00010566352
0.00010329592
0.00010172259
0.00010063022
9.8964528e-05
9.6392854e-05
9.3020647e-05
8.876109e-05
8.3011616e-05
7.3858719e-05
5.4668392e-05
4.9463153e-06
2.1597701e-06
6.9484146e-05
8.9472599e-05
9.6214661e-05
9.7809321e-05
9.8192484e-05
9.9042095e-05
0.0001001904
0.00010123223
0.00010278131
0.00010496008
0.00010633318
0.00010608101
0.00010603195
0.00010608091
0.00010525817
0.00010416326
0.00010342644
0.00010244541
0.00010061446
9.8197025e-05
9.5344797e-05
9.1794284e-05
8.6999461e-05
7.9582428e-05
6.3983906e-05
2.4803928e-05
6.2885899e-06
7.710521e-05
9.3564143e-05
9.7975977e-05
9.8483366e-05
9.9231269e-05
0.00010118096
0.00010316946
0.00010389799
0.00010399429
0.00010428118
0.00010381426
0.00010112314
0.0001006047
0.0001021561
0.00010333109
0.00010422492
0.00010466295
0.00010379296
0.00010186437
9.9598172e-05
9.7264998e-05
9.4549134e-05
9.0736193e-05
8.4717732e-05
7.105894e-05
4.2535832e-05
2.9154293e-05
8.3657584e-05
9.6176415e-05
9.8647778e-05
9.886152e-05
0.00010069053
0.00010430169
0.00010745524
0.00010796617
0.0001063195