/*--------------------------------*- C++ -*----------------------------------*\
| =========                 |                                                 |
| \\      /  F ield         | OpenFOAM: The Open Source CFD Toolbox           |
|  \\    /   O peration     | Version:  2406                                  |
|   \\  /    A nd           | Website:  www.openfoam.com                      |
|    \\/     M anipulation  |                                                 |
\*---------------------------------------------------------------------------*/
FoamFile
{
    version     2.0;
    format      ascii;
    arch        "LSB;label=32;scalar=64";
    class       volScalarField;
    location    "100";
    object      p;
}
// * * * * * * * * * * * * * * * * * * * * * * * * * * * * * * * * * * * * * //

dimensions      [0 2 -2 0 0 0 0];

internalField   nonuniform List<scalar> 
150387
(
0.0064547847
0.008872407
0.0088804051
0.0088896251
0.0089037262
0.0089219202
0.0089375788
0.0089510675
0.0089455591
0.0089164962
0.0088981424
0.0088788974
0.0088686287
0.0088688729
0.0088782805
0.0088940706
0.0089132024
0.0089317918
0.0089467465
0.0089542795
0.0089547517
0.0089755404
0.0089478227
0.0089165516
0.0088902344
0.0088672805
0.00885531
0.0088556648
0.0088666872
0.008883846
0.0089026499
0.00892039
0.0089336675
0.0089405296
0.0089396299
0.0089362849
0.0089331837
0.0090558443
0.009020184
0.0089831475
0.0089456481
0.0089083245
0.0088756799
0.0088501335
0.008837602
0.008839429
0.0088531162
0.0088711607
0.0088894717
0.0089042441
0.0089137399
0.0089176182
0.0089158354
0.008912601
0.0089076329
0.0088999412
0.0091238455
0.0090797461
0.0090343077
0.0089885881
0.0089427337
0.0088987226
0.0088611554
0.0088339828
0.0088229818
0.0088292988
0.0088481917
0.008866461
0.0088811038
0.0088870928
0.0088880956
0.0088863361
0.0088829703
0.0088807195
0.0088772347
0.0088740913
0.0088709067
0.0091478576
0.0090996621
0.0090499771
0.0089966061
0.0089429465
0.0088927951
0.0088514717
0.0088241951
0.0088172354
0.0088319062
0.0088606364
0.0088806558
0.0088867726
0.0088755011
0.0088609041
0.008849214
0.0088428724
0.008841826
0.0088434477
0.008845434
0.0088476397
0.00884831
0.0092072894
0.009170558
0.0091231874
0.0090696986
0.0090108014
0.0089511331
0.0088959866
0.0088516464
0.0088247229
0.0088224682
0.0088468594
0.00888822
0.0089116541
0.0089050666
0.008869742
0.0088343195
0.0088096896
0.0087987904
0.0087987398
0.008804962
0.0088142762
0.0088237294
0.008830812
0.0088339451
0.0092599206
0.0092316655
0.0091964226
0.0091508888
0.0090962519
0.0090357185
0.0089733391
0.0089138694
0.0088646964
0.0088349734
0.0088318273
0.0088582956
0.0089051518
0.008929936
0.0089101374
0.0088548087
0.0088030597
0.0087694627
0.0087553855
0.0087561199
0.0087661315
0.0087813816
0.0087981365
0.0088126745
0.0088173538
0.0092834016
0.0092585032
0.0092263666
0.0091840536
0.0091342714
0.0090788991
0.0090183897
0.0089541432
0.0088938494
0.0088520703
0.0088360243
0.0088473924
0.0088790913
0.0088948393
0.0088681919
0.008811729
0.0087615927
0.0087303761
0.0087176686
0.008719695
0.0087319101
0.0087508739
0.0087728152
0.0087935758
0.0088080314
0.0088140605
0.009295966
0.0092778209
0.0092528022
0.0092211903
0.0091861823
0.0091473243
0.0090967007
0.0090263614
0.0089435961
0.0088746513
0.0088325653
0.008815318
0.0088143872
0.0088080445
0.0087825934
0.0087462559
0.0087168806
0.0086993893
0.0086927325
0.0086961198
0.0087085832
0.0087286649
0.0087531921
0.0087784311
0.0087987474
0.0088076468
0.0093116968
0.0093016214
0.0092896325
0.0092745481
0.0092596858
0.0092498771
0.0092417218
0.0092124891
0.0091371508
0.0090195139
0.0089080045
0.0088274082
0.0087813374
0.008751027
0.0087240782
0.0087038937
0.0086929215
0.0086880495
0.0086875188
0.008688613
0.0086927921
0.0087028297
0.0087206007
0.0087446493
0.0087712775
0.0087940704
0.0088063152
0.009308552
0.0093004148
0.0092935372
0.0092879467
0.0092918932
0.00931441
0.0093467254
0.0093486601
0.0092701494
0.0091131995
0.0089529892
0.008832727
0.008764771
0.0087150326
0.0086820208
0.008667092
0.0086712912
0.0086845296
0.0087021699
0.008713731
0.0087179488
0.0087216133
0.0087327686
0.008752694
0.0087779348
0.0088012718
0.0088191194
0.0088277438
0.0093001523
0.0092934797
0.0092884288
0.0092877524
0.0093050933
0.0093506145
0.0094130145
0.0094396551
0.0093630964
0.0091857186
0.00899979
0.0088639806
0.0087891477
0.0087028425
0.0086734416
0.0086634701
0.0086770006
0.0087065878
0.0087476242
0.0087731678
0.0087746938
0.0087668379
0.0087664441
0.0087785114
0.0087996082
0.0088212409
0.0088395561
0.0088484817
0.0092896534
0.0092826689
0.0092772604
0.0092774594
0.0092954501
0.0093407098
0.0094010693
0.0094267134
0.0093569172
0.0091949684
0.0090279915
0.0089077821
0.0088534797
0.0087943973
0.0086755012
0.0086822282
0.0087058669
0.0087541948
0.0088198215
0.0088581609
0.0088529716
0.0088294928
0.0088153366
0.0088184544
0.0088337526
0.0088514239
0.0088672653
0.0088724678
0.0092810028
0.00927066
0.0092615619
0.0092565187
0.0092663749
0.0092969459
0.0093366828
0.0093469489
0.0092881616
0.0091669493
0.0090437052
0.0089532171
0.0089033487
0.0088802981
0.008760401
0.0087339036
0.0087578751
0.0088111965
0.0088836374
0.0089238599
0.0089132171
0.0088827678
0.0088637436
0.0088638452
0.0088762461
0.0088894464
0.0088965967
0.0089002509
0.0092716315
0.0092592662
0.00924643
0.0092343442
0.009231624
0.0092417852
0.0092575514
0.0092569813
0.0092193482
0.0091485388
0.0090746087
0.0090084756
0.0089560626
0.008895774
0.0088307278
0.008798968
0.0088155894
0.0088564575
0.0089118663
0.0089438908
0.0089362581
0.0089139052
0.0089025179
0.0089084432
0.0089221305
0.0089341431
0.0089392473
0.0089416835
0.0092688256
0.0092539987
0.009237904
0.0092203702
0.0092075473
0.0092025637
0.0092035884
0.0092008137
0.0091856197
0.0091585847
0.0091265874
0.0090918681
0.0090550724
0.0089949772
0.0089250233
0.0088780253
0.0088732047
0.008892749
0.0089213211
0.0089390873
0.0089387034
0.0089332743
0.008936065
0.0089486418
0.0089649824
0.0089768764
0.0089805519
0.0089736122
0.0092667311
0.0092562191
0.0092399448
0.0092201157
0.0092016895
0.0091884877
0.0091820718
0.0091809907
0.0091836977
0.0091898016
0.0092009387
0.0092144068
0.0092069488
0.0091508625
0.0090539003
0.0089720946
0.00893221
0.0089225604
0.0089266586
0.0089327505
0.0089386055
0.0089484115
0.0089644402
0.0089844229
0.0090021943
0.0090134942
0.0090166051
0.0092598228
0.0092501314
0.0092319735
0.0092124757
0.0091962834
0.00918717
0.009187855
0.0092018414
0.0092332022
0.0092860434
0.0093496874
0.0093750069
0.0093193201
0.0091907656
0.0090684902
0.0089901555
0.0089519556
0.00893829
0.0089382385
0.0089483822
0.0089672196
0.0089911265
0.0090147609
0.0090330081
0.0090427564
0.0090415682
0.009270661
0.0092652125
0.0092518356
0.0092348812
0.0092193976
0.0092100441
0.0092111443
0.0092293572
0.0092720082
0.0093444948
0.0094311002
0.0094711415
0.0094191383
0.0092800135
0.0091368372
0.0090355152
0.0089797042
0.008956757
0.0089550931
0.0089680735
0.0089906156
0.0090163996
0.0090397544
0.0090557262
0.0090608015
0.009060349
0.0092796453
0.0092738486
0.0092624636
0.0092510193
0.0092435604
0.0092448135
0.0092611664
0.0092995207
0.0093619246
0.0094328776
0.0094620571
0.0094164418
0.0092937432
0.0091617413
0.0090626319
0.0090053575
0.0089814833
0.0089808473
0.0089950356
0.0090173127
0.0090412037
0.0090615171
0.0090748594
0.0090750606
0.0092915903
0.0092938257
0.00929063
0.0092854294
0.009282047
0.0092839232
0.0092958103
0.0093208971
0.0093583393
0.0093955537
0.0094012634
0.0093599933
0.009264126
0.0091601896
0.0090784221
0.0090299214
0.009010295
0.0090115277
0.0090252526
0.0090447289
0.0090638145
0.0090780539
0.0090846232
0.0090852862
0.0093119883
0.009316095
0.009318064
0.0093197786
0.0093232574
0.0093311624
0.0093430271
0.009356635
0.0093635418
0.0093493445
0.0093079492
0.0092341027
0.00915633
0.0090938218
0.009056379
0.0090420873
0.0090445546
0.0090564397
0.0090713232
0.0090834401
0.0090899972
0.009092247
0.0093368358
0.0093459002
0.009352311
0.0093577551
0.0093635929
0.0093663901
0.0093639623
0.0093520033
0.0093265723
0.0092827409
0.0092226174
0.0091622882
0.0091142085
0.009085892
0.0090755561
0.0090778976
0.0090861716
0.0090939812
0.0090977608
0.0090993126
0.0093656232
0.0093766273
0.0093837228
0.0093887241
0.0093864116
0.0093759851
0.0093557339
0.0093248328
0.009280979
0.0092287406
0.0091788996
0.0091396761
0.0091168522
0.0091078894
0.009107721
0.0091103517
0.0091070636
0.0091074782
0.0093877246
0.009399107
0.0094048548
0.009399242
0.0093850035
0.0093623778
0.0093294317
0.009287812
0.0092414398
0.0091984266
0.0091648304
0.0091452159
0.0091356685
0.0091280907
0.009121534
0.0091155458
0.0094117553
0.0094063416
0.00939073
0.0093670188
0.009335335
0.0092977132
0.0092574136
0.0092187705
0.0091835743
0.0091611568
0.00915037
0.0091427193
0.0093714966
0.0093418762
0.0093084836
0.0092719124
0.0092308492
0.009206406
0.0089145056
0.008898197
0.0088824396
0.0088824342
0.0088905517
0.0089046617
0.0089231629
0.0089448673
0.008955442
0.008953811
0.008915401
0.00889907
0.0088766592
0.00886852
0.0088688531
0.0088807589
0.0088983093
0.0089189325
0.0089384226
0.0089516738
0.0089596723
0.0089560791
0.0089541948
0.0090218029
0.0089793175
0.008952391
0.0089158334
0.0088881265
0.0088619542
0.008851729
0.0088525021
0.0088654768
0.0088829826
0.0089036663
0.0089235171
0.0089380198
0.0089466213
0.0089409994
0.0089374488
0.0089410856
0.0090724926
0.009020585
0.0089831752
0.008944066
0.0089022337
0.0088672402
0.0088389389
0.0088265598
0.0088282348
0.0088432481
0.0088610096
0.0088824179
0.0088995094
0.0089115688
0.0089187788
0.0089173165
0.008915261
0.008910206
0.0089063744
0.0091335214
0.0090797638
0.0090344773
0.0089872638
0.008938856
0.0088893675
0.0088487867
0.008818549
0.008806783
0.0088126498
0.008830993
0.0088486359
0.0088654631
0.0088728405
0.0088774371
0.008880468
0.0088803958
0.0088823822
0.0088799121
0.0088756278
0.0088791874
0.0091934991
0.0091514312
0.0091004359
0.0090498215
0.0089919981
0.008933969
0.0088791455
0.0088346159
0.0088042125
0.00879588
0.0088094157
0.008834351
0.0088531176
0.0088600435
0.0088497237
0.0088407878
0.0088357244
0.0088359236
0.0088407739
0.0088469844
0.0088497756
0.0088498831
0.008854623
0.0092104503
0.0091733255
0.0091240102
0.0090660305
0.0090011966
0.0089374812
0.0088785283
0.0088310001
0.0088009712
0.0087966411
0.0088179229
0.008852431
0.0088738519
0.0088653038
0.0088314719
0.0088050341
0.0087895159
0.0087874651
0.0087949134
0.0088063949
0.0088193478
0.0088291847
0.0088340584
0.008844684
0.0092640794
0.009231844
0.0091989239
0.0091479736
0.0090874691
0.0090208824
0.0089542473
0.0088915585
0.008839106
0.0088065738
0.0088003585
0.0088204738
0.0088592055
0.0088808407
0.0088579948
0.0088067059
0.0087675834
0.0087455487
0.0087415733
0.0087506057
0.0087666434
0.0087862054
0.0088043219
0.0088197624
0.0088267021
0.0092888029
0.0092644738
0.009228269
0.0091783311
0.0091207886
0.0090585799
0.0089931179
0.0089248785
0.0088604181
0.0088166961
0.0087974102
0.0088005292
0.0088257096
0.0088369599
0.0088090051
0.0087602169
0.008724239
0.0087050324
0.0087021822
0.0087122449
0.0087305632
0.0087542485
0.0087781252
0.0087990354
0.0088088922
0.0088202336
0.0093103038
0.0092984416
0.0092792835
0.0092492634
0.0092100533
0.0091671432
0.0091207422
0.0090631123
0.008986224
0.0088956158
0.0088269488
0.0087840523
0.0087595552
0.0087550656
0.0087436917
0.0087221076
0.0086961567
0.0086794249
0.0086729653
0.0086752491
0.0086866263
0.0087056701
0.0087314742
0.0087591206
0.0087861997
0.0088030156
0.0088132248
0.0093146583
0.009302216
0.0092876595
0.0092655384
0.0092419513
0.0092227386
0.0092044772
0.0091641216
0.0090779774
0.0089513142
0.008850155
0.0087750408
0.0087318707
0.0087018312
0.0086779788
0.0086589114
0.0086521634
0.0086529997
0.0086608124
0.0086692721
0.0086805815
0.0086973694
0.0087217886
0.0087499857
0.0087794611
0.0087990944
0.0088112192
0.0093113766
0.0092989265
0.0092876313
0.0092745727
0.0092710203
0.0092840755
0.0093036557
0.0092880791
0.0091928922
0.009026
0.0088848234
0.0087766745
0.0087126068
0.0086654631
0.0086411725
0.0086301967
0.0086351654
0.0086507962
0.0086758346
0.0086937071
0.0087040194
0.0087144114
0.0087331725
0.0087584876
0.0087885005
0.0088081704
0.0088240407
0.008834544
0.0093005653
0.0092908218
0.0092795643
0.0092692553
0.0092760858
0.0093078835
0.009352014
0.009356086
0.0092628472
0.0090832285
0.0089356982
0.0088235279
0.0087868678
0.0086928547
0.0086596335
0.0086322016
0.0086469132
0.0086754373
0.0087229252
0.0087515567
0.0087571463
0.0087558639
0.0087645402
0.0087838276
0.0088110521
0.0088317245
0.0088442901
0.0088542879
0.0092878356
0.0092790781
0.0092694183
0.009260848
0.0092703964
0.009303085
0.0093461252
0.009349684
0.0092628202
0.0090989504
0.0089717092
0.0088725284
0.0088446483
0.0087892561
0.0086604157
0.0086550884
0.0086827783
0.0087295167
0.0087996906
0.0088354716
0.0088316996
0.0088157947
0.0088123418
0.0088239822
0.0088444533
0.008861316
0.0088714541
0.0088816045
0.0092818583
0.0092685917
0.009254808
0.0092409892
0.0092429121
0.009260371
0.0092824487
0.0092726268
0.0092020037
0.0090808286
0.0089867068
0.0089143359
0.0088887019
0.0088669746
0.0087502929
0.0087116915
0.008737978
0.008787608
0.0088632771
0.0088979862
0.0088873807
0.0088654143
0.0088593187
0.0088700747
0.0088878977
0.0089023463
0.0088954462
0.0089059229
0.009273773
0.0092576961
0.0092421448
0.0092221453
0.0092123418
0.0092118473
0.0092149589
0.0092016684
0.0091564573
0.0090821174
0.0090150809
0.0089510167
0.0089165642
0.0088574485
0.0088053081
0.0087687525
0.0087860928
0.00882668
0.0088863085
0.0089157697
0.0089111113
0.0088989219
0.0089001347
0.008915715
0.0089350764
0.0089498616
0.0089397382
0.0089441412
0.0092727738
0.0092532673
0.0092358565
0.0092127734
0.0091943471
0.0091816605
0.0091742822
0.0091630788
0.0091411201
0.0091067215
0.0090736966
0.0090381966
0.0090137403
0.0089587939
0.0088882925
0.0088404958
0.0088392596
0.0088618723
0.0088967711
0.0089177282
0.0089230436
0.0089273498
0.0089397247
0.0089591598
0.0089790072
0.0089931162
0.0089815013
0.009271818
0.0092583406
0.0092422456
0.009218504
0.0091961572
0.0091773313
0.0091648993
0.009157268
0.0091529452
0.0091500819
0.009154304
0.0091574527
0.0091462623
0.0090917908
0.0089983793
0.0089269361
0.0088960038
0.0088926818
0.008905793
0.0089195645
0.0089327313
0.008950433
0.0089738917
0.0089983067
0.0090178018
0.0090259275
0.0090191337
0.009264539
0.0092543918
0.009234679
0.0092132609
0.0091936696
0.0091803991
0.0091758526
0.0091844836
0.0092095645
0.0092556666
0.009308247
0.0093228687
0.009263428
0.0091336435
0.0090228053
0.0089563795
0.0089284072
0.0089247688
0.0089338815
0.0089518049
0.0089774508
0.0090063615
0.0090318126
0.0090499879
0.0090532493
0.0090525762
0.0092776959
0.0092744773
0.0092588798
0.0092413789
0.0092238777
0.0092114215
0.0092080331
0.0092210118
0.0092561258
0.0093163884
0.0093845662
0.0094076783
0.0093528702
0.0092158039
0.0090886338
0.00900362
0.0089618771
0.0089506986
0.0089587326
0.0089788539
0.0090061823
0.0090340081
0.0090558255
0.0090711276
0.0090597685
0.0090653971
0.0092899132
0.0092882633
0.0092829801
0.0092723201
0.0092601785
0.0092508749
0.0092481434
0.0092591292
0.0092881527
0.0093356354
0.0093846393
0.0093970575
0.0093498866
0.009232658
0.0091182037
0.0090367253
0.0089945382
0.0089828355
0.0089912783
0.0090111526
0.0090362991
0.0090601496
0.0090774533
0.0090858685
0.0090825276
0.0093013335
0.0093030919
0.0093019747
0.0092985905
0.0092936487
0.0092921027
0.0092986371
0.0093138386
0.009336773
0.0093538868
0.0093472895
0.0093057104
0.0092157195
0.0091270057
0.0090607585
0.0090263546
0.0090174367
0.0090262545
0.0090437153
0.0090643574
0.0090800387
0.0090911069
0.0090864993
0.0093169176
0.0093269187
0.0093307855
0.0093335943
0.0093339814
0.0093383473
0.0093411446
0.0093433357
0.0093341139
0.0093129753
0.0092722673
0.0092029944
0.0091367177
0.0090858083
0.009059684
0.009053416
0.0090609198
0.0090744825
0.0090874446
0.009096472
0.0090940006
0.0091002203
0.0093423847
0.0093600126
0.0093658722
0.0093692139
0.0093731553
0.0093682252
0.009356714
0.0093346733
0.0093044065
0.0092614067
0.0092042821
0.0091521858
0.009112836
0.0090932785
0.0090885075
0.0090936887
0.0091017623
0.0091072826
0.0091029839
0.0091083083
0.0093692239
0.0093869194
0.0093920416
0.0093985328
0.0093903019
0.0093726632
0.0093472467
0.0093133679
0.0092703063
0.009221064
0.0091774083
0.0091428921
0.0091250321
0.0091179848
0.0091165668
0.0091174273
0.0091122602
0.0091166738
0.0093972734
0.0094021176
0.0094103121
0.0094004146
0.0093844045
0.0093582266
0.0093214918
0.0092795825
0.0092341236
0.0091942504
0.0091649678
0.009150114
0.0091406924
0.009134457
0.0091283259
0.0094172421
0.0094103913
0.0093935051
0.0093703933
0.0093390148
0.0093008628
0.0092594923
0.0092202941
0.0091856307
0.0091635053
0.0091555525
0.0091518689
0.0093753735
0.0093416155
0.0093089937
0.0092721287
0.0092382618
0.0089234533
0.0089028464
0.0088850203
0.008879355
0.0088880066
0.0089041051
0.0089257852
0.0089510316
0.0089624556
0.0089612871
0.0089118549
0.0088949494
0.0088725018
0.0088628725
0.0088625156
0.0088754572
0.0088946861
0.0089184497
0.0089409385
0.0089562202
0.00896774
0.0089634759
0.0089630561
0.0090294484
0.0089780174
0.0089504437
0.0089112392
0.0088830629
0.0088557347
0.0088445044
0.0088441996
0.0088576443
0.0088763237
0.0089001941
0.008924189
0.0089418027
0.0089525775
0.0089454703
0.0089433325
0.0089537474
0.0090817563
0.0090195721
0.0089807529
0.0089402667
0.0088962757
0.0088598044
0.0088291719
0.0088148549
0.0088144487
0.0088290475
0.008847009
0.0088725197
0.0088945584
0.008911136
0.008921895
0.0089208341
0.0089195091
0.0089153679
0.0089139463
0.0091412549
0.0090805246
0.0090327128
0.0089844087
0.0089341304
0.0088817814
0.0088387271
0.0088052854
0.0087908585
0.0087942775
0.008811438
0.0088281027
0.0088491864
0.0088612368
0.008871074
0.008878709
0.0088808349
0.0088847142
0.0088818817
0.0088781009
0.0088842043
0.0092033449
0.0091557243
0.0091003215
0.0090483673
0.0089876904
0.0089264778
0.0088682248
0.00882068
0.0087868123
0.0087760299
0.0087875725
0.0088108868
0.0088274918
0.0088386356
0.0088319124
0.0088282035
0.0088280389
0.0088321686
0.0088400093
0.0088475744
0.0088499471
0.0088509144
0.0088591878
0.0092147645
0.0091756456
0.0091239476
0.0090628077
0.0089936667
0.0089259343
0.0088632754
0.0088128993
0.0087801793
0.0087744558
0.0087944325
0.0088274164
0.0088458652
0.0088414476
0.0088093245
0.0087874463
0.0087763021
0.0087788154
0.0087901901
0.0088039244
0.0088178319
0.0088280604
0.0088341377
0.0088559123
0.0092724266
0.0092339759
0.0092003343
0.0091457269
0.0090804296
0.0090082904
0.0089369006
0.0088706574
0.0088161545
0.0087824332
0.0087762573
0.0087962557
0.0088346473
0.0088531118
0.0088334416
0.0087821413
0.0087465209
0.0087281747
0.0087285993
0.0087419198
0.0087609722
0.0087824437
0.0088010245
0.0088176835
0.0088290179
0.0092963684
0.0092691965
0.009229381
0.0091734333
0.0091088105
0.0090399605
0.0089693553
0.0088977059
0.008831941
0.0087890372
0.0087710453
0.0087751808
0.008801127
0.0088097693
0.0087838839
0.0087342966
0.0087007064
0.0086845376
0.008685426
0.0086995401
0.0087211758
0.0087475175
0.0087727026
0.0087942769
0.0088055376
0.0088257059
0.0093182105
0.0093025269
0.0092815374
0.0092464761
0.009199986
0.0091494044
0.0090960755
0.0090329927
0.008952484
0.0088608348
0.0087946631
0.0087546962
0.0087304744
0.0087271765
0.0087139279
0.0086944807
0.0086684314
0.0086536294
0.0086497976
0.008655147
0.008670083
0.0086925673
0.0087217658
0.0087517089
0.0087805027
0.0087976236
0.008812815
0.0093213551
0.0093036487
0.0092864187
0.0092575243
0.0092257994
0.0091983174
0.0091730701
0.0091270525
0.009037185
0.0089104618
0.0088143249
0.0087421991
0.0087011953
0.0086734694
0.0086494712
0.008631852
0.0086247485
0.0086263248
0.0086357237
0.0086459627
0.0086599
0.0086799503
0.0087083601
0.0087398628
0.0087720801
0.0087923166
0.0088065001
0.0093162404
0.0092971672
0.0092818869
0.0092614074
0.0092501234
0.0092559837
0.0092697963
0.0092486951
0.0091486587
0.0089825931
0.0088462781
0.0087401727
0.0086780873
0.0086335625
0.008610832
0.0086022079
0.0086081018
0.008623562
0.0086496234
0.0086687098
0.0086808397
0.0086939113
0.0087167242
0.0087462272
0.0087803897
0.0088007655
0.0088186682
0.0088367145
0.0093018088
0.0092861524
0.0092702215
0.0092515454
0.0092500825
0.0092736766
0.00931108
0.0093089749
0.0092111553
0.0090359929
0.0088952346
0.0087882951
0.008766558
0.0086638791
0.008626554
0.0086015601
0.0086185137
0.0086472484
0.0086960813
0.0087249527
0.0087317019
0.0087327918
0.0087453742
0.0087695372
0.0088021733
0.0088250508
0.0088380858
0.0088555684
0.0092869319
0.0092739637
0.0092599557
0.009243862
0.0092466584
0.0092733277
0.0093116225
0.0093109657
0.0092195846
0.0090564131
0.0089340584
0.0088372506
0.0088165412
0.0087582681
0.0086249369
0.0086243887
0.0086549339
0.0087033956
0.0087756553
0.0088109132
0.0088065538
0.0087921481
0.0087925229
0.0088094654
0.0088358551
0.0088556403
0.0088676659
0.0088852734
0.0092799783
0.0092624087
0.0092452949
0.0092250405
0.0092218511
0.0092342875
0.0092523323
0.009238294
0.0091638393
0.0090401965
0.0089502237
0.0088792623
0.0088569604
0.0088351812
0.0087177168
0.0086792535
0.0087102219
0.0087608833
0.0088390212
0.0088725044
0.0088605334
0.0088401886
0.0088386894
0.0088558914
0.0088801911
0.0088979306
0.0088873021
0.0089073265
0.0092711245
0.009251329
0.0092337342
0.0092085741
0.0091942613
0.0091891506
0.0091883236
0.0091710303
0.0091222062
0.0090447366
0.0089778984
0.0089130889
0.0088806264
0.0088224898
0.0087727437
0.0087366067
0.0087573469
0.0088016377
0.0088649435
0.008894159
0.0088884354
0.0088779473
0.0088833938
0.0089053839
0.0089311729
0.0089497714
0.0089372351
0.0089459754
0.0092739912
0.0092472244
0.0092282006
0.0092014789
0.0091791133
0.0091619718
0.0091506281
0.0091354414
0.0091095828
0.0090716194
0.0090369089
0.0090004265
0.00897363
0.008919785
0.0088509558
0.0088051451
0.008808662
0.0088360662
0.0088749424
0.0088973777
0.0089037379
0.0089110472
0.0089284896
0.0089539677
0.0089792304
0.0089960611
0.0089838953
0.0092766805
0.0092534332
0.009236166
0.0092099841
0.0091845809
0.0091616335
0.0091449996
0.009133009
0.0091242102
0.0091165658
0.0091162932
0.0091154055
0.0090984378
0.009046696
0.0089545891
0.0088881528
0.0088629733
0.0088655004
0.0088838383
0.0089007944
0.0089166625
0.00893859
0.0089677023
0.0089977112
0.009021276
0.0090305264
0.0090260335
0.0092615805
0.0092491966
0.0092282489
0.0092048554
0.0091819614
0.0091646317
0.00915524
0.0091590716
0.0091793511
0.009220357
0.0092687605
0.0092717687
0.009217302
0.0090906571
0.0089845222
0.0089240962
0.0089025066
0.0089041545
0.0089175159
0.0089395073
0.0089703392
0.0090048783
0.0090349471
0.0090559182
0.0090609529
0.0090615576
0.0092803315
0.0092716538
0.0092545605
0.0092360293
0.0092160808
0.009199931
0.0091914453
0.0091991904
0.0092291374
0.0092837403
0.0093479867
0.0093604656
0.0093114076
0.0091766029
0.0090537373
0.0089738054
0.0089381499
0.0089325205
0.0089455959
0.0089704304
0.009002666
0.009034764
0.0090595863
0.0090767803
0.0090615961
0.0090754131
0.0092990782
0.0092881413
0.0092807899
0.0092693638
0.0092558326
0.0092437137
0.0092363048
0.0092419938
0.0092655578
0.0093072216
0.0093520312
0.0093557679
0.0093134941
0.0091986117
0.0090881482
0.0090110831
0.0089744155
0.0089682721
0.0089818931
0.0090062844
0.0090355721
0.0090626517
0.0090822073
0.0090932267
0.0090910684
0.0093079028
0.009303449
0.0093009721
0.009297507
0.0092908115
0.0092856337
0.0092874929
0.0092970394
0.009313841
0.0093256341
0.0093122283
0.0092744602
0.0091867825
0.009101916
0.0090395363
0.0090102704
0.0090063044
0.009019733
0.0090408919
0.0090647713
0.009082179
0.0090960269
0.009091455
0.0093202098
0.0093285333
0.0093316151
0.009334295
0.0093323931
0.0093339789
0.0093314793
0.0093278684
0.0093125508
0.0092860242
0.0092477218
0.0091800745
0.0091171488
0.0090695076
0.0090477182
0.0090452953
0.009056249
0.0090726522
0.0090876111
0.0090996319
0.0090968612
0.0091103416
0.0093461776
0.0093642622
0.0093692538
0.0093713712
0.0093745202
0.0093654752
0.0093486117
0.009320859
0.009286035
0.0092434594
0.0091869027
0.0091373502
0.0091006435
0.0090844367
0.0090824021
0.0090900301
0.0091003659
0.0091091917
0.0091042102
0.0091183399
0.0093752837
0.0093921584
0.009395794
0.0094034833
0.0093927523
0.0093714943
0.0093416138
0.0093040667
0.0092600236
0.0092105468
0.0091680596
0.0091344314
0.0091183611
0.0091127995
0.0091131479
0.0091186222
0.0091140731
0.0091274604
0.0094054109
0.0094083074
0.009417876
0.0094041828
0.0093862737
0.0093569964
0.0093166797
0.0092730731
0.0092263383
0.0091857202
0.0091577684
0.0091448672
0.0091390514
0.0091325635
0.0091313782
0.0094267706
0.0094174129
0.0093986206
0.0093731146
0.0093387593
0.0092977992
0.0092539095
0.0092127473
0.0091793464
0.0091600075
0.0091582875
0.0091613894
0.009382875
0.0093465664
0.0093121468
0.0092742396
0.0092407269
0.008921098
0.0088991732
0.0088787587
0.0088715609
0.0088827186
0.0089027968
0.008929411
0.0089593163
0.0089726167
0.0089597114
0.0088942025
0.0088765128
0.0088528891
0.0088435539
0.0088442189
0.0088610244
0.0088849173
0.0089158781
0.0089453268
0.0089657358
0.0089827649
0.0089762196
0.0089755065
0.0090301537
0.0089679174
0.0089366693
0.0088916393
0.008862301
0.0088331745
0.0088221864
0.0088224168
0.0088393189
0.0088619124
0.0088922934
0.0089242432
0.0089482853
0.0089639345
0.0089538904
0.0089537983
0.0089669865
0.0090853856
0.0090108068
0.0089673622
0.0089227901
0.0088741041
0.0088351947
0.0088016494
0.0087867199
0.0087862476
0.00880398
0.008824197
0.0088559844
0.0088852808
0.0089090665
0.0089259707
0.0089253202
0.0089251534
0.0089211044
0.0089215308
0.00914754
0.0090768121
0.009022893
0.0089702397
0.0089156984
0.0088580491
0.0088113366
0.0087743222
0.0087592429
0.0087635144
0.0087842428
0.0088016465
0.0088274421
0.0088438881
0.0088599039
0.0088734794
0.0088778619
0.0088840952
0.0088805002
0.0088768764
0.008887717
0.0092122702
0.0091597603
0.0090961092
0.0090389841
0.0089722313
0.0089054231
0.0088412488
0.0087892138
0.0087517457
0.0087416063
0.0087563426
0.0087853074
0.0088017383
0.0088161544
0.0088098274
0.0088097822
0.0088139844
0.0088217199
0.0088326683
0.0088412655
0.0088428863
0.0088449148
0.0088590958
0.0092230855
0.0091787982
0.0091198965
0.0090518628
0.008975431
0.0089014681
0.0088325734
0.008777393
0.0087417926
0.0087389312
0.0087652814
0.0088078593
0.0088261301
0.0088233866
0.0087863884
0.0087649795
0.0087553518
0.0087610776
0.0087758943
0.0087913543
0.008805926
0.008816631
0.0088259033
0.0088581996
0.0092836907
0.0092395438
0.0092020987
0.0091390602
0.0090656364
0.0089856138
0.0089078278
0.0088354054
0.0087757744
0.0087399833
0.0087385407
0.0087676793
0.0088202485
0.0088391422
0.0088197783
0.0087593747
0.0087211329
0.0087020593
0.0087046822
0.008721344
0.0087427336
0.008765833
0.0087847454
0.0088040711
0.0088239385
0.0093109338
0.0092791259
0.0092310883
0.009164326
0.0090896656
0.0090129614
0.0089365351
0.008858701
0.0087867523
0.0087416215
0.0087277166
0.0087411526
0.0087832425
0.0087927506
0.0087663907
0.0087073648
0.0086699417
0.0086525673
0.0086551871
0.0086725153
0.0086968293
0.0087255639
0.008751884
0.0087749904
0.0087884815
0.0088230352
0.0093286919
0.0093117779
0.0092865749
0.0092419099
0.0091848439
0.0091257721
0.0090666387
0.0089989451
0.008911979
0.0088117806
0.0087415359
0.0087030936
0.0086835078
0.008692607
0.008680375
0.0086622884
0.0086302188
0.0086138037
0.0086109621
0.0086190447
0.0086375479
0.0086631251
0.0086956044
0.0087277604
0.0087594794
0.0087785221
0.0088048743
0.0093306167
0.0093072134
0.0092848275
0.0092453814
0.0092044697
0.009170432
0.0091419263
0.0090930146
0.0089964472
0.0088592777
0.0087583047
0.0086838125
0.0086450089
0.0086252065
0.0086037218
0.0085865739
0.0085772467
0.0085801537
0.008593004
0.0086063317
0.0086233154
0.0086461301
0.0086781048
0.0087125832
0.0087487798
0.0087711555
0.0087944701
0.0093232189
0.0092940082
0.0092724953
0.0092428135
0.0092259544
0.0092298111
0.0092448345
0.0092232476
0.0091143384
0.0089361712
0.0087898562
0.0086763664
0.00861497
0.0085741193
0.0085539442
0.0085472657
0.0085562052
0.0085760464
0.0086088061
0.008631867
0.0086457692
0.0086598705
0.0086852354
0.008717883
0.0087571849
0.008779758
0.0088056268
0.0088306974
0.0093037518
0.0092764526
0.0092544961
0.0092270065
0.0092215765
0.0092439959
0.0092831244
0.0092811539
0.0091742896
0.0089902628
0.0088398538
0.0087258013
0.0087198796
0.008612381
0.00857298
0.0085431987
0.0085662926
0.008603224
0.0086624981
0.0086952413
0.0087012127
0.0087007548
0.008714076
0.0087409506
0.0087795243
0.0088057584
0.0088244887
0.0088501698
0.0092816876
0.0092621431
0.0092426832
0.0092198891
0.0092210265
0.0092490126
0.0092912406
0.0092918669
0.0091903275
0.0090143393
0.0088808456
0.0087741647
0.0087631396
0.008705562
0.0085703726
0.008566352
0.0086069608
0.0086706571
0.0087577251
0.0087965255
0.0087867815
0.0087663423
0.0087649818
0.0087838707
0.0088160518
0.0088403424
0.0088570467
0.0088825329
0.0092755019
0.0092464463
0.0092253279
0.0091989661
0.009194601
0.0092068242
0.0092257771
0.0092095545
0.0091251316
0.0089874028
0.0088912505
0.0088139005
0.0088010273
0.0087806417
0.0086631651
0.0086208487
0.0086639579
0.0087311352
0.0088253487
0.00886153
0.0088426416
0.0088152761
0.0088122171
0.0088326703
0.0088637467
0.0088866353
0.0088756351
0.0089056545
0.0092647366
0.0092337318
0.009213024
0.0091823417
0.00916583
0.009158775
0.0091564689
0.0091351247
0.0090776197
0.0089885543
0.008915432
0.008846669
0.0088163274
0.0087600868
0.0087126606
0.0086776179
0.0087083539
0.0087702831
0.0088499674
0.0088826127
0.0088708527
0.0088552801
0.0088604391
0.0088877945
0.008921796
0.0089465223
0.0089332102
0.0089483102
0.009270079
0.0092285986
0.0092065221
0.0091752861
0.0091500458
0.0091293822
0.0091147981
0.0090946903
0.0090616948
0.0090164501
0.0089789957
0.0089456185
0.0089198398
0.0088661251
0.0087936509
0.0087464293
0.0087576448
0.0087981698
0.0088500159
0.0088774586
0.0088827072
0.0088897851
0.0089108961
0.0089436469
0.0089777511
0.0090000157
0.0089878204
0.0092735076
0.009235884
0.00921561
0.0091858754
0.0091577354
0.0091309046
0.0091101562
0.0090931304