/*--------------------------------*- C++ -*----------------------------------*\
| =========                 |                                                 |
| \\      /  F ield         | OpenFOAM: The Open Source CFD Toolbox           |
|  \\    /   O peration     | Version:  2406                                  |
|   \\  /    A nd           | Website:  www.openfoam.com                      |
|    \\/     M anipulation  |                                                 |
\*---------------------------------------------------------------------------*/
FoamFile
{
    version     2.0;
    format      ascii;
    arch        "LSB;label=32;scalar=64";
    class       volScalarField;
    location    "750";
    object      epsilon;
}
// * * * * * * * * * * * * * * * * * * * * * * * * * * * * * * * * * * * * * //

dimensions      [0 2 -3 0 0 0 0];

internalField   nonuniform List<scalar> 
150387
(
0.0034870732
0.0016499077
0.001553736
0.0015709774
0.0015861709
0.0018447792
0.0023609723
0.0035848106
0.0049171804
0.00091389295
0.00082347955
0.00084639594
0.00092079007
0.0010407818
0.0011927425
0.0013452516
0.0014568478
0.0014929055
0.0014248439
0.0013426141
0.0025558252
0.00079112214
0.00074635902
0.00078084594
0.00085094978
0.00092202624
0.00098897052
0.001063834
0.0011553178
0.001273137
0.0014078734
0.0015185819
0.0015535647
0.0014812971
0.0013316434
0.0012161982
0.0021832517
0.0053469498
0.00084726271
0.0008344695
0.00095026519
0.0010837529
0.0012116482
0.0013298107
0.0014005412
0.001408767
0.0013795376
0.0013761023
0.0014333866
0.0015455085
0.0016589231
0.0016866738
0.001582824
0.0013665766
0.001125175
0.0016847012
0.0057861098
0.00090659926
0.00097799538
0.0011751116
0.0013773673
0.0015674851
0.0017453825
0.0018877831
0.0019895564
0.0020354987
0.0019892578
0.0018227625
0.0016545965
0.0016331716
0.0017260304
0.0018311116
0.001826602
0.0016656374
0.00138474
0.0011306742
0.0010306225
0.00099090214
0.0010662919
0.0013459524
0.0016269502
0.0018872006
0.0021345748
0.0023480204
0.002514766
0.0026296341
0.0026477507
0.0026270907
0.0025340608
0.0022464986
0.0019326908
0.0018322466
0.0019228878
0.0020009341
0.0019306608
0.0016957688
0.0013408511
0.00097661748
0.0013627315
0.0011097328
0.0011323157
0.0014514145
0.0017909042
0.0020820136
0.0023464491
0.0025845528
0.0027890862
0.0029646017
0.0031118187
0.0032276747
0.0031981163
0.0030574294
0.0029274184
0.0025594333
0.0021640125
0.0020486027
0.0021248143
0.0021289676
0.001961334
0.0016270041
0.0011937631
0.0009490472
0.0018080031
0.0047648828
0.0011596131
0.0014582658
0.001837966
0.0021523836
0.0023979318
0.0026084538
0.0028116507
0.0030198414
0.0032219178
0.003396314
0.0035339034
0.0036555835
0.0036150268
0.0033856869
0.0031622707
0.0027274817
0.0023509416
0.0022671862
0.002272529
0.002157908
0.0018694491
0.0014474618
0.0010070609
0.00080851371
0.0012311744
0.0013478932
0.0017512231
0.0020954354
0.0023328089
0.0024862931
0.0026316918
0.0028359941
0.0030977256
0.003365415
0.0035363911
0.0035753221
0.0035828711
0.0036924096
0.0037108281
0.003526053
0.0032087723
0.0027691007
0.0024982801
0.002438339
0.0023235286
0.0020632929
0.0016640381
0.0011735336
0.00078416041
0.001173758
0.0012804534
0.0015629898
0.0019236191
0.0021707554
0.0022983132
0.0023735293
0.002548086
0.0029040957
0.0033638551
0.0036698104
0.0036271226
0.003238073
0.002795946
0.002673906
0.0029878838
0.0033882548
0.0034046296
0.0030970895
0.002760763
0.0026288239
0.002491829
0.002230607
0.0018379552
0.0013362013
0.00086174454
0.00087351948
0.0022037584
0.0014143726
0.0016859238
0.0019290303
0.0020511682
0.0020945545
0.00222744
0.0026513615
0.0032926668
0.003775783
0.0037281982
0.002778224
0.0014878509
0.00076931636
0.00055510173
0.00079788685
0.0018095129
0.0029490118
0.0031687269
0.0029493961
0.0028012335
0.0026467335
0.0023691754
0.0019761418
0.0014610567
0.00095658958
0.0008216761
0.0017887149
0.0015200879
0.0017073799
0.0018196447
0.0018393472
0.0019020862
0.0023132975
0.0030731472
0.0037229501
0.0037950872
0.0029270675
0.00098509781
0.00020265443
9.4008335e-05
7.8872225e-05
0.00010822641
0.0004385618
0.0017438039
0.0028886132
0.0030035922
0.0029206808
0.0027662371
0.0024711317
0.0020734872
0.0015341488
0.0010256349
0.00077911159
0.003095867
0.0015168078
0.0015507322
0.0016317764
0.0016518521
0.0016644681
0.0019541783
0.0027142162
0.0034430954
0.0037246055
0.0034994281
0.0017819055
0.00021782654
7.3400696e-05
9.560657e-05
6.0110311e-05
6.9348767e-05
0.00013561495
0.00086164313
0.0023900655
0.0029504933
0.0029851435
0.0028332275
0.0025289834
0.0021143683
0.001562914
0.0010686791
0.00078294263
0.0016069139
0.0015872533
0.001510034
0.0014974008
0.0014888287
0.0016166525
0.002237721
0.0030481946
0.0034026655
0.0036220902
0.0031482981
0.0012378081
0.00014945748
8.1859913e-05
0.00034479346
0.00010592602
6.1679663e-05
9.2174598e-05
0.00051072528
0.0020359392
0.0028853044
0.0030181759
0.002859082
0.0025412199
0.002085414
0.0015482616
0.0010661055
0.00080384809
0.001751802
0.0016670383
0.0014069369
0.0013509
0.0013796127
0.0017115873
0.00249672
0.003021958
0.0033040772
0.0034095468
0.0029821076
0.0013926349
0.00021564057
8.2768729e-05
0.00013633889
9.7246461e-05
6.9535493e-05
0.00010628189
0.00047946801
0.0020408292
0.0029521373
0.0030776549
0.0028253256
0.0024764329
0.0020082199
0.0014733749
0.0010214828
0.00084955663
0.0020859859
0.0017537063
0.0013000247
0.0012127955
0.0013213414
0.0018301263
0.0024817711
0.0028813468
0.0031154314
0.0031842075
0.0031091194
0.0019771483
0.00051815615
0.00010849525
7.2944292e-05
7.4896291e-05
9.2727357e-05
0.00020781049
0.00092264881
0.0025160311
0.0031332837
0.0030117888
0.0027400997
0.0023677013
0.0018366337
0.0013228472
0.00098039908
0.00093468825
0.0053495953
0.0023383694
0.0012147378
0.0010956186
0.0012760838
0.001802391
0.0023189378
0.0026911301
0.0028487729
0.00300405
0.0032343
0.0028041214
0.0014324976
0.00043671682
0.00018286922
0.00018669754
0.00031855956
0.00077611597
0.0019841862
0.0030150878
0.0031046142
0.0028846543
0.0025951394
0.0021052266
0.0015703847
0.0011732471
0.0010013444
0.001119093
0.0037693992
0.0043407114
0.0011411998
0.00099355495
0.0012006295
0.0016510059
0.0021307612
0.0024432508
0.0025762642
0.002754453
0.0031762155
0.0032904728
0.0027901237
0.0018128477
0.0011002761
0.0010712505
0.0014245318
0.0021238599
0.0028662957
0.0030591726
0.0029507205
0.0026543789
0.0022074927
0.0017128205
0.0013359437
0.0011215659
0.001052105
0.0011666045
0.0011188831
0.00090353647
0.0010865435
0.0014724591
0.0019001282
0.0021920388
0.002298191
0.0024283624
0.0028713591
0.003297829
0.0032450907
0.0030266344
0.0026803439
0.0025036228
0.0026207033
0.0028202185
0.0029075986
0.0028293249
0.002540976
0.0021499966
0.0017441702
0.0014403512
0.0012386765
0.0011240416
0.0010694837
0.0017303649
0.0012877258
0.00082298791
0.0009563422
0.0012915398
0.0016617977
0.0019394586
0.0020333285
0.0020928536
0.0024229013
0.0029703123
0.0031991435
0.00309607
0.0029700646
0.002840706
0.0027669547
0.0026926316
0.0025752797
0.002356321
0.0020451735
0.0017425661
0.001513081
0.0013421059
0.0012087478
0.0010971206
0.0011383993
0.0019763102
0.0007912872
0.00083462611
0.0011119942
0.0014393915
0.0017009085
0.0018006288
0.0018082891
0.0019824237
0.0024510982
0.0028864035
0.0029518019
0.0028813663
0.0027678742
0.0026255836
0.0024697134
0.0022736792
0.002041847
0.0018029864
0.0016083616
0.0014417617
0.0012851387
0.0011353868
0.0010317114
0.0012829531
0.0010653463
0.00076607717
0.00093945096
0.0012276464
0.0014924575
0.0016185138
0.0016070275
0.0016320379
0.0019066267
0.0023484841
0.0026258245
0.0026323691
0.0025757163
0.0024426299
0.0022846676
0.0020964403
0.0018935666
0.0017060628
0.0015263037
0.0013415094
0.0011559717
0.00099823154
0.00098378932
0.0034983999
0.00094752258
0.00081742298
0.0010203432
0.0012745139
0.0014389309
0.001459482
0.0014271087
0.00150543
0.0017662769
0.0020783561
0.0022291438
0.0022225731
0.0021524279
0.0020189425
0.0018675374
0.0017061461
0.0015283046
0.0013370053
0.0011383346
0.00097235193
0.001046299
0.0022088705
0.00089888076
0.00085839873
0.00106683
0.0012470035
0.0013239141
0.0012980135
0.0012714703
0.0013536817
0.0015379714
0.0016966215
0.0017515235
0.0017289545
0.001663788
0.0015530408
0.0014073919
0.0012363435
0.0010493978
0.00087936002
0.00082198184
0.0011236651
0.0012800266
0.00094483173
0.0010734414
0.0011834066
0.0012122643
0.0011587264
0.0011081305
0.0011373304
0.0012283327
0.0012877576
0.0012789773
0.0012226993
0.0011352117
0.0010204783
0.0008944297
0.00081048124
0.0009124918
0.0017526011
0.0023650535
0.0011153136
0.0010700039
0.0011417522
0.0011348554
0.0010501174
0.00095290067
0.00091012609
0.00091520675
0.00090716202
0.00086409122
0.00079927055
0.00073543485
0.00071287627
0.00087638521
0.0027909754
0.0032296307
0.0013657095
0.0012025591
0.0011802167
0.0010578377
0.0009189133
0.00081795908
0.00077302339
0.00078758626
0.00080819868
0.00092756038
0.0016681379
0.0030791473
0.0022320539
0.0020156316
0.0018043375
0.0018502782
0.0034506863
0.0047379472
0.0024162637
0.0016929955
0.0016275676
0.0016712704
0.0017438384
0.0019935781
0.001919887
0.003083966
0.0010123888
0.00082012962
0.00080654442
0.00082102371
0.00085083942
0.00091057438
0.0010049967
0.0011284588
0.0012421239
0.0013098407
0.0013997668
0.0013579278
0.0028312162
0.0041609167
0.0017135541
0.00069460452
0.00068500592
0.0006944881
0.00070431618
0.00070937674
0.00071114755
0.00072237378
0.00075298896
0.00081874691
0.00092815599
0.0010586443
0.0011627702
0.0011783394
0.0011383493
0.0015043314
0.0012755675
0.0014780961
0.00083926222
0.00079447678
0.00082039718
0.00085625439
0.00088335983
0.00089581795
0.00088990709
0.00086104254
0.00082116939
0.00080668274
0.00081916095
0.00088165782
0.001002337
0.0011138964
0.0011177634
0.0011009743
0.001089683
0.0014918145
0.0016508661
0.00096449975
0.0009307637
0.00099998424
0.0010812955
0.0011501281
0.0012046825
0.0012433618
0.0012624899
0.0012496911
0.0011914691
0.0010869094
0.00097168865
0.00090818343
0.00092850895
0.0010235295
0.0011110866
0.001094626
0.0009998862
0.00097747408
0.001239135
0.0025464222
0.0010832898
0.0010417891
0.0011395252
0.0012463189
0.0013302814
0.0013976077
0.0014574945
0.0015096635
0.001546289
0.0015585279
0.0015356214
0.001474063
0.0013505673
0.0011608196
0.0010210122
0.0010141951
0.0010748627
0.0011197998
0.0010585027
0.00092588401
0.00087396148
0.0012276291
0.0014258968
0.0011528661
0.0012217638
0.0013335768
0.0014046601
0.0014506198
0.0014989029
0.0015561215
0.0016076869
0.0016381217
0.0016480923
0.0016449529
0.0016278529
0.0015939792
0.0014801361
0.0012820849
0.001117109
0.0010936567
0.0011319626
0.0011199905
0.00099549687
0.00083247904
0.00068780238
0.0014528512
0.0015861545
0.0011765116
0.0012468682
0.0013632459
0.0014039388
0.0014002751
0.0014308927
0.0014917441
0.001574182
0.0016297054
0.0016290969
0.001578265
0.0015226301
0.0015015867
0.0015181816
0.0015466843
0.0014799384
0.0013070496
0.0011728818
0.0011624609
0.0011632052
0.0010741627
0.00088967787
0.00068166825
0.00072173785
0.0013318189
0.0012744536
0.0013646206
0.0013759562
0.001313483
0.0013102537
0.0013963811
0.0015500369
0.0016683468
0.0016412484
0.0014819028
0.0012788776
0.0011279796
0.0010787332
0.0011382513
0.0012850734
0.0014230744
0.0014081872
0.0012772473
0.0012102583
0.0012020378
0.0011366467
0.00096135094
0.00072296179
0.00057555101
0.0011780316
0.0051441383
0.0014459972
0.0013678118
0.0013622902
0.0012460176
0.0011775908
0.0012681609
0.0015025785
0.0017071599
0.0016669404
0.0013626329
0.0009576934
0.00061930314
0.00043808599
0.00041348805
0.00053921188
0.00079506357
0.0011169479
0.0013275441
0.001322623
0.0012545334
0.0012380655
0.0011860669
0.0010216505
0.00077373587
0.00055434302
0.0006328918
0.002218489
0.0014169248
0.0013994408
0.0012506958
0.0010726804
0.0011171266
0.0013819957
0.0016960035
0.0017149856
0.0013337336
0.00076250268
0.00030564871
0.0001012017
6.2366171e-05
6.6176443e-05
0.00012813396
0.00032895751
0.00071171904
0.0011024876
0.0012777053
0.0012736011
0.0012623913
0.0012240227
0.0010661783
0.00081353706
0.00055189826
0.00054381946
0.0037447613
0.0014495295
0.0013294258
0.0010647687
0.00097563254
0.0011778678
0.0015746349
0.0017432019
0.0014538859
0.00086356041
0.00029531526
5.3324771e-05
3.4776683e-05
4.2173122e-05
4.1375161e-05
3.8452125e-05
9.8904128e-05
0.00038740662
0.00084436244
0.0011670728
0.0012633619
0.0012777445
0.0012520186
0.0010936021
0.00083331936
0.00055218788
0.00049566818
0.0028230037
0.0019445411
0.0014359766
0.0011930438
0.00090234005
0.00095848171
0.0013146232
0.0016494355
0.0015943108
0.0011881991
0.00060503775
0.00012985216
2.9265693e-05
3.57856e-05
8.034942e-05
6.3417108e-05
4.1426318e-05
4.3880809e-05
0.00021125751
0.00064762418
0.0010496562
0.0012392304
0.0012905789
0.0012723571
0.0011006183
0.00082984086
0.00053947559
0.00046732382
0.0014693831
0.0017976519
0.0013655838
0.0010442858
0.00081542999
0.0010080013
0.0014006755
0.0015765261
0.0014525698
0.0011021527
0.00053195503
9.0138058e-05
3.0017418e-05
4.6491589e-05
0.0003135103
0.00010743323
3.8212859e-05
4.0220259e-05
0.00014331848
0.00054764879
0.00097398954
0.0012253176
0.0013096029
0.0012811376
0.0010813253
0.00078860653
0.00051557344
0.00059011753
0.0017417877
0.0018660338
0.0012785416
0.0009397391
0.00079113579
0.0010584407
0.0013711782
0.0014661586
0.0013995815
0.0011371386
0.00060203342
0.00012725298
3.1819607e-05
3.4212398e-05
0.00012476721
6.8622007e-05
3.5054386e-05
4.0542859e-05
0.00016810146
0.00055171018
0.00096636818
0.001248966
0.001337808
0.0012687302
0.0010244516
0.00071484363
0.00050386728
0.00053556105
0.0022548863
0.001968214
0.0011903741
0.00087459859
0.00078259324
0.001055557
0.0012888151
0.0013706604
0.0013824053
0.0012447183
0.00079485017
0.00026087579
5.226201e-05
2.7442313e-05
2.8334807e-05
2.9568125e-05
3.2349506e-05
7.9162727e-05
0.00027589459
0.00065723092
0.0010517695
0.0013169428
0.0013611331
0.0012123018
0.00092074213
0.00062774383
0.00049935367
0.00057511551
0.0035320765
0.0025367269
0.0011471435
0.00084001613
0.0007778341
0.0010124048
0.0011953748
0.0012729687
0.001354336
0.0013577106
0.0010603507
0.00053648304
0.00019654469
8.3836973e-05
5.2200693e-05
5.3319026e-05
9.2225835e-05
0.00022641034
0.00049985607
0.00087801566
0.0012212619
0.0013908163
0.0013227685
0.001077821
0.00076814546
0.00056435173
0.00057149027
0.00088630148
0.0034354796
0.0011324066
0.00081857225
0.00076928549
0.00095572143
0.0011033421
0.0011709784
0.0012762929
0.001404253
0.0013173266
0.0009185052
0.00052226708
0.00032437386
0.00024806037
0.00026045817
0.0003650019
0.00056924485
0.0008601488
0.0011676933
0.001365732
0.0013609237
0.0011670021
0.00088798498
0.00064815483
0.00056398314
0.00077840282
0.0011583329
0.0011754696
0.00080549953
0.00075614863
0.00090173995
0.0010172304
0.0010626565
0.0011465988
0.0013322589
0.0014427625
0.0012797548
0.00095431707
0.00073860604
0.00066903213
0.00069126445
0.00080141489
0.00097995781
0.0011792533
0.0013198006
0.0013224361
0.0011734051
0.00093823368
0.00071366503
0.0005979533
0.00060353835
0.00092437317
0.0015332189
0.0011456059
0.00080074813
0.00074091897
0.00085406982
0.00094862624
0.00097203932
0.001001868
0.0011570506
0.00136449
0.0014332761
0.0012944066
0.001114991
0.0010320752
0.0010374565
0.001100785
0.0011852416
0.001243386
0.0012249267
0.0011092816
0.00092994308
0.00075215612
0.00063918114
0.00061218734
0.00069999917
0.0011396362
0.0047325956
0.0028754557
0.00081918985
0.00073474137
0.00081236154
0.00089804995
0.00091012072
0.00089143908
0.00095766525
0.001140913
0.0013195061
0.0013627687
0.0012869777
0.001208223
0.0011705118
0.0011586625
0.0011461071
0.0011037917
0.0010150513
0.00089087021
0.00076559324
0.00067407108
0.00063728573
0.0006921004
0.001255998
0.0021903253
0.00085758346
0.0007739442
0.00078901026
0.00085885397
0.00087680474
0.00083115771
0.00080961102
0.00089730925
0.0010617626
0.0011931217
0.0012200419
0.0011746545
0.0011175763
0.0010670721
0.0010140167
0.00094572629
0.00086100558
0.00077506034
0.00070726442
0.00067237342
0.00068345729
0.00082830559
0.00090062855
0.00098468655
0.00084720858
0.00083940851
0.0008644435
0.00082280349
0.00075014238
0.00073382344
0.00080428101
0.00092608934
0.00101583
0.0010422829
0.0010192607
0.00097438706
0.00091802974
0.00085382996
0.00078892417
0.00073353168
0.00069615281
0.00068929313
0.00077421999
0.00085396411
0.0020259836
0.0011166596
0.00092059904
0.00088189989
0.00084475599
0.00076293746
0.00068527913
0.00066530258
0.00069020771
0.00075753745
0.00081707734
0.00083396836
0.00082207551
0.00079245614
0.00075300047
0.00071200579
0.00068002037
0.00067534499
0.00073468018
0.0007991917
0.001656898
0.0014176261
0.0012335304
0.00089910421
0.00084193845
0.00073659111
0.0006497757
0.00060162469
0.00059312131
0.00061212146
0.00063959075
0.00064829286
0.00063866866
0.00061942151
0.00059899294
0.00059222863
0.00061833841
0.00081123407
0.0016108978
0.0018524828
0.0010796419
0.0010820461
0.0010285313
0.00082442601
0.00067388653
0.00058226667
0.00052180867
0.00050039717
0.00049650939
0.00050133042
0.00051381923
0.00054119632
0.00059577191
0.00089718136
0.0019913514
0.0026232713
0.0012888877
0.0011472718
0.000845898
0.00068423883
0.00057541446
0.00053415211
0.000543029
0.00057556428
0.00080373354
0.0022154975
0.0066060539
0.0029605012
0.00257192
0.0022721177
0.0024772067
0.0083641399
0.0041172819
0.0026799258
0.0023335685
0.0022094822
0.0021647576
0.0022728729
0.0024534711
0.0035430374
0.0020775025
0.0016508514
0.0015445308
0.0015190328
0.0015170886
0.0015623109
0.0016329267
0.0017014008
0.0017333456
0.0017067239
0.0017550058
0.0016265037
0.0030796658
0.004326483
0.0025544105
0.0012334126
0.0011487528
0.0011364455
0.0011283287
0.0011179522
0.0011121524
0.0011273753
0.0011834455
0.0012891237
0.0014222836
0.0015291024
0.0015461603
0.0014844252
0.0014024469
0.0017071012
0.0017301217
0.0017217467
0.0011114905
0.0010642655
0.001062031
0.0010616522
0.0010526777
0.0010324959
0.0010004039
0.00096193104
0.00093638967
0.00095136137
0.0010354497
0.0011898021
0.0013451176
0.0014369558
0.0013959295
0.0013645257
0.0013413687
0.0018542358
0.0019987671
0.0011082819
0.0010990862
0.0011726983
0.001244089
0.0012888048
0.0013079872
0.0013068688
0.0012887192
0.001246926
0.0011741905
0.0010805315
0.0010040147
0.0010053297
0.0011075399
0.0012720759
0.0013765686
0.0013533628
0.0012209113
0.0011777016
0.0016299949
0.0031129112
0.0012657456
0.0012366869
0.0013473751
0.0014490752
0.0015035703
0.0015218379
0.0015238117
0.0015196599
0.0015085447
0.0014871216
0.0014447269
0.001370082
0.0012534968
0.0011246947
0.0010599234
0.0011218567
0.0012666144
0.001348562
0.0012764357
0.0011101379
0.001058557
0.0014631967
0.001626378
0.0013882315
0.0014747189
0.0015772956
0.0016106671
0.0015900725
0.0015621225
0.0015498636
0.0015469681
0.0015388351
0.0015178052
0.0014928823
0.0014669814
0.0014260897
0.0013369408
0.001201492
0.0011240462
0.001176334
0.0012917055
0.0013143404
0.0011768999
0.00099179953
0.00078317589
0.0018548048
0.0017142292
0.0014423676
0.0015301442
0.0016388899
0.0016391003
0.0015549921
0.0014786429
0.0014620969
0.0014779739
0.0014705783
0.0014203642
0.0013498914
0.001295412
0.0012810725
0.0013078637
0.0013422527
0.0013126178
0.0012088229
0.0011688234
0.0012325823
0.0013034556
0.0012375548
0.0010387958
0.00077824694
0.00086634256
0.001580991
0.0015556093
0.0016687009
0.001650843
0.0015011783
0.0013626251
0.001353916
0.0014056085
0.0014209575
0.0013213397
0.0011433668
0.00096737451
0.00086116015
0.00085200181
0.00092725269
0.0010684339
0.0012070726
0.001238765
0.0011951309
0.0012108191
0.0012732071
0.001262034
0.0010943073
0.00081716741
0.00064047532
0.0013130162
0.0058914411
0.0017598018
0.0017003522
0.0016963149
0.0014971628
0.0012744686
0.0012427916
0.0013389169
0.0014060587
0.0012688547
0.00096092089
0.00063589933
0.00039625232
0.00028148427
0.00028636446
0.00040586449
0.00062220423
0.00089923197
0.0011156104
0.0011821524
0.0012038109
0.0012529403
0.0012637284
0.0011288667
0.00085972676
0.00061349242
0.00072940463
0.0027212986
0.0017603527
0.0017967757
0.001602495
0.0012649725
0.0011316196
0.0012370822
0.0013825425
0.0012914507
0.00092621213
0.0004890911
0.00018144459
6.2154425e-05
4.7057547e-05
5.1725151e-05
9.9511844e-05
0.00025554592
0.00055249398
0.00088950281
0.0010960134
0.00117734
0.0012358395
0.0012543479
0.0011397987
0.00088607687
0.00059802329
0.00061311635
0.0042137449
0.0018620852
0.0017875132
0.0014021594
0.001073067
0.0011030251
0.0012928638
0.0013316991
0.0010608706
0.00058552296
0.00018808946
3.8641223e-05
3.3384238e-05
4.2009343e-05
4.0273531e-05
3.7072391e-05
8.318452e-05
0.00029964166
0.00066370332
0.0009718104
0.0011296412
0.0012158485
0.0012388838
0.0011316665
0.00088985213
0.00059130403
0.00055690204
0.0035462947
0.0023035693
0.0019243403
0.0017037136
0.0011947343
0.00099176828
0.0011380639
0.0012941128
0.0012132089
0.000885909
0.00040210804
9.1337803e-05
2.932672e-05
3.5857322e-05
9.4364459e-05
6.7794082e-05
4.1171188e-05
4.1643559e-05
0.00016977983
0.00050575288
0.0008606432
0.001075338
0.001194197
0.0012198765
0.0011066424
0.00087012888
0.00057887638
0.00054077451
0.0022024753
0.0022363857
0.0019367517
0.0015849314
0.0010427861
0.00097930843
0.0011584273
0.0012348818
0.0011338727
0.00082832357
0.00034498979
6.5055075e-05
3.0136594e-05
4.9827841e-05
0.00037663508
9.9979527e-05
3.8494995e-05
3.9251666e-05
0.00012524048
0.00043293799
0.0007962297
0.0010386996
0.0011803019
0.0011963381
0.0010615136
0.00081662921
0.00056558102
0.00082783518
0.0026499602
0.0023945859
0.0019230937
0.0014789299
0.00096437496
0.00098889115
0.0011437285
0.001179081
0.0011159761
0.0008497748
0.00038944003
8.4228797e-05
3.1415969e-05
3.4506519e-05
0.00010538398
5.1015628e-05
3.4024701e-05
4.360163e-05
0.00015173578
0.00044063713
0.00078623544
0.0010386396
0.0011777268
0.0011611695
0.00099045376
0.00074080968
0.00057301106
0.0006974161
0.0031601862
0.0026764929
0.0018806004
0.0014038092
0.00094485374
0.0010008773
0.0011134462
0.0011430755
0.0011232853
0.00093338759
0.00052162259
0.00016785159
4.8517135e-05
2.9067852e-05
2.9210239e-05
3.081204e-05
3.4831903e-05
8.2633873e-05
0.00023495792
0.00051565576
0.00083969439
0.0010815982
0.0011761149
0.0010969567
0.00088238207
0.00065440179
0.00060936203
0.00075025634
0.0040738728
0.0037691592
0.0018858263
0.0013632797
0.00096210635
0.0010013885
0.0010853817
0.0011089924
0.0011238826
0.001036666
0.00071419272
0.00034590815
0.00014506866
7.4238642e-05
5.0877395e-05
5.4029213e-05
9.0290637e-05
0.00019022489
0.00038358087
0.00066927039
0.00096157712
0.0011405305
0.0011415012
0.00098798684
0.00076795195
0.00062663495
0.00075021532
0.0012251892
0.005466073
0.0019251162
0.0013465248
0.00098772589
0.0010058485
0.0010680623
0.0010694999
0.0010929179
0.0011064208
0.00092701528
0.00060868232
0.00036056968
0.0002386183
0.00018615965
0.00019501436
0.00027042793
0.00041607521
0.0006366619
0.00089354001
0.0010922555
0.0011425973
0.001035691
0.0008447841
0.00068236307
0.00067034195
0.0010172903
0.001487353
0.0020733464
0.0013488542
0.0010181704
0.0010139355
0.0010653052
0.0010416251
0.0010320612
0.0010946536
0.0010724369
0.00088827318
0.0006751004
0.00054895616
0.00050280093
0.00051784439
0.00060309934
0.00074617412
0.00091996458
0.0010659929
0.0011135868
0.0010374387
0.00088658512
0.00074491985
0.00068279266
0.00076153029
0.0011542661
0.0018291216
0.002131764
0.0013843583
0.0010499779
0.0010164894
0.0010763423
0.0010348406
0.0009757787
0.0010081583
0.0010769986
0.0010481501
0.00093319188
0.00084009584
0.0008152661
0.00083854073
0.0008972743
0.0009778627
0.0010454773
0.0010594614
0.00099970171
0.00089172288
0.00078931755
0.00072841175
0.0007328502
0.00090184334
0.0013714722
0.0049435391
0.0054386437
0.0015413583
0.0010935489
0.0010054846
0.001085449
0.0010591039
0.00095667562
0.00091481184
0.00097090484
0.0010305478
0.0010204872
0.00097201517
0.00094549523
0.00095176679
0.00097286967
0.000990228
0.00098337304
0.00094355159
0.00088060457
0.00082117458
0.00078113361
0.00077567612
0.00089757591
0.0015065896
0.0023893577
0.0017854656
0.0012032453
0.00098859341
0.0010723918
0.0010920361
0.00099254371
0.00087950316
0.00085724506
0.00091001651
0.00096188982
0.00096633448
0.00095097531
0.0009415045
0.00093724764
0.0009264871
0.00090574909
0.00088269099
0.00085412966
0.00083305297
0.00081785135
0.00084841674
0.001085922
0.0011496339
0.0013878828
0.0010430781
0.0010499641
0.0011064674
0.0010521627
0.00092314103
0.00081799161
0.00080191877
0.00084076008
0.00088962493
0.0009121095
0.00091403551
0.00090921
0.00090168513
0.00089243365
0.00088003599
0.00086024656
0.00083894356
0.0008426698
0.00099158757
0.0011344746
0.0024739246
0.0013592337
0.0011413336
0.0011447126
0.0010935365
0.0010120383
0.0008780252
0.00077640328
0.00074244
0.00076553286
0.00080432584
0.00083094551
0.00084417106
0.00084725892
0.00084236591
0.00082833531
0.00080973144
0.00081198987
0.00091825866
0.0010133766
0.0020276932
0.001806039
0.0014587169
0.0011662091
0.0011082913
0.0010255281
0.00089055927
0.00077298771
0.00071254572
0.00070399835
0.00071967082
0.00073075708
0.00072983687
0.0007185325
0.00069960481
0.00068742436
0.00071296672
0.00098893184
0.0018928795
0.0021242327
0.0013005988
0.0013228261
0.0013346929
0.0011569075
0.0010063123
0.00086518885
0.0007473813
0.00068130168
0.00065039543
0.00064109881
0.00064029779
0.00066619983
0.00067034225
0.0011395168
0.0021797975
0.0029988451
0.001581906
0.0014558937
0.0011704195
0.0010137868
0.00087461248
0.00078635119
0.00078952376
0.00081232323
0.0010566356
0.0024524006
0.0072929798
0.0036447254
0.0034284354
0.0032699651
0.0034432011
0.012084266
0.005580297
0.0035324866
0.0029752453
0.0027008297
0.0025554294
0.0026087896
0.0027675635
0.0039535385
0.0042146124
0.0028974103
0.0026271786
0.0024970455
0.0024092818
0.00236948
0.0023459778
0.0023079032
0.0022223982
0.0020936746
0.0020413817
0.0018668341
0.0033826009
0.0046604942
0.0062831858
0.0025726624
0.0022194137
0.0021036613
0.0020156136
0.0019311373
0.0018653805
0.0018392801
0.0018640887
0.0019337304
0.0020099644
0.0020384813
0.0019625525
0.0018127658
0.0016569573
0.0019482571
0.0018277534
0.0034358738
0.002288964
0.0019259584
0.0017150705
0.001564417
0.0014469169
0.0013547235
0.0012806459
0.0012322206
0.0012329747
0.0013014165
0.0014463248
0.0016401483
0.0017923665
0.0018363417
0.0017274385
0.0016093267
0.0014877018
0.0021113739
0.0023739181
0.0017130564
0.0015582845
0.0015073346
0.0014959818
0.0014927866
0.0014805476
0.0014525519
0.0014095305
0.0013470116
0.0012684156
0.0011976886
0.0011760497
0.0012573794
0.0014429817
0.0016517534
0.0017469933
0.0016596881
0.0014464084
0.0013301077
0.0017755077
0.0032910271
0.0014849575
0.0014969704
0.0015931899
0.00168429
0.0017316034
0.001732014
0.0017008105
0.001653649
0.0015989336
0.0015415737
0.0014749377
0.0013902149
0.0012893115
0.0012115839
0.0012333222
0.0013950034
0.0016053184
0.0016846846
0.0015544109
0.0012965445
0.0011475499
0.0014887938
0.0017862586
0.0016299206
0.0017453826
0.0018660482
0.0019027204
0.0018568554
0.0017732512
0.0016908142
0.0016206036
0.0015594214
0.0015039368
0.0014610492
0.001430794
0.0013919966
0.0013214486
0.0012455544
0.0012606192
0.0014225201
0.0016033533
0.0016139454
0.0014009879
0.0011173239
0.00084253547
0.0018881509
0.0018040787
0.0016768427
0.0018129616
0.0019657089
0.0019778803
0.0018581084
0.0016990217
0.0015766392
0.0014955231
0.0014200826
0.0013346447
0.0012552927
0.0012078564
0.001205476
0.0012414608
0.0012796672
0.0012749354
0.0012443985
0.0013043413
0.0014776973
0.0015901549
0.0014819666
0.0011928074
0.00085514978
0.00092139903
0.0018043148
0.0018486369
0.0020207701
0.0020239563
0.0018310914
0.0015880514
0.0014354616
0.0013690482
0.0012950254
0.0011559648
0.00098207903
0.00083173541
0.00075339108
0.0007687481
0.00086143204
0.0010092853
0.0011456579
0.0012056274
0.0012430113
0.0013689101
0.0015177916
0.0015035886
0.0012644518
0.00090629695
0.00073418952
0.0013977767
0.0063677002
0.0020261046
0.0020421031
0.0020909221
0.0018663211
0.001527874
0.001321802
0.0012794386
0.0012391119
0.0010668132
0.00079057344
0.00052406931
0.00033419429
0.00024613322
0.0002628112
0.00038614088
0.00059852705
0.00085454623
0.0010636356
0.0011734109
0.0012869682
0.0014367914
0.0014806151
0.0013000787
0.000959335
0.00071337478
0.00087539237
0.0030365635
0.0020771129
0.0022046809
0.0020324827
0.0015917704
0.0012648599
0.0012049485
0.0012158918
0.0010807903
0.00076086405
0.00041089114
0.00016808873
6.7971133e-05
5.3267964e-05
5.7517268e-05
0.00010542865
0.00026137311
0.00053943303
0.00084605612
0.001061043
0.001209606
0.0013618027
0.0014345949
0.0012988308
0.00099008327
0.00071895445
0.00080951912
0.004538271
0.002253678
0.0022726447
0.0018453993
0.0013230092
0.0011395952
0.0011740606
0.0011304485
0.00088672184
0.00049665815
0.00018139606
5.1935316e-05
4.0674157e-05
4.8253873e-05
4.5618189e-05
4.2630607e-05
9.7488523e-05
0.00031087836
0.00063994401
0.00093090199
0.0011306599
0.0012956674
0.0013800112
0.0012700047
0.00099303791
0.00072958284
0.00076348474
0.005702024
0.0026131938
0.0024108592
0.0022710454
0.0016236985
0.0011538367
0.0011139602
0.0011446741
0.0010342416
0.00075167086
0.00034914756
9.7900151e-05
3.8201817e-05
4.1042849e-05
0.00010868245
8.7178344e-05
4.6808713e-05
4.9750266e-05
0.00018916651
0.00049870428
0.00082256935
0.0010604378
0.0012404881
0.0013252235
0.0012209368
0.00096979455
0.00074008648
0.00078566356
0.0033550888
0.0026400038
0.0025238324
0.0022282533
0.0014409469
0.0010869988
0.001113736
0.0011060934
0.0009798629
0.00069696915
0.00029693047
7.7870969e-05
3.9551625e-05
5.8872324e-05
0.00047291934
0.00010038209
4.5351752e-05
4.5855536e-05
0.00015070019
0.00043658922
0.00076115738
0.001014782
0.001202181
0.0012693916
0.0011522378
0.00091691803
0.00075676821
0.0012375351
0.0036530371
0.0028545514
0.0026180991
0.0021892102
0.0013394154
0.0010840681
0.0011204769
0.0010867397
0.00097053975
0.00070479651
0.00032887322
0.00010099971
4.2446967e-05
4.1483667e-05
0.00013373885
5.6500918e-05
4.3006876e-05
5.7046304e-05
0.00017946999
0.00044533125
0.00075135012
0.001005207
0.0011803628
0.001207889
0.0010650712
0.000857536
0.00080958107
0.0010122551
0.0039635299
0.0032843297
0.002670758