/*--------------------------------*- C++ -*----------------------------------*\
| =========                 |                                                 |
| \\      /  F ield         | OpenFOAM: The Open Source CFD Toolbox           |
|  \\    /   O peration     | Version:  2406                                  |
|   \\  /    A nd           | Website:  www.openfoam.com                      |
|    \\/     M anipulation  |                                                 |
\*---------------------------------------------------------------------------*/
FoamFile
{
    version     2.0;
    format      ascii;
    arch        "LSB;label=32;scalar=64";
    class       volScalarField;
    location    "750";
    object      k;
}
// * * * * * * * * * * * * * * * * * * * * * * * * * * * * * * * * * * * * * //

dimensions      [0 2 -2 0 0 0 0];

internalField   nonuniform List<scalar> 
150387
(
0.0006498789
0.00056258825
0.00058545358
0.00061717131
0.00062369897
0.00060564649
0.00055561147
0.00054811112
0.00044562314
0.00032372331
0.0003363184
0.00036831416
0.00042103427
0.00048598806
0.00055898491
0.00063338559
0.00068560023
0.00068491537
0.00061417846
0.0004995527
0.00043893612
0.00027658649
0.00030623682
0.00037179352
0.00043641478
0.00048051639
0.00050679197
0.00053355703
0.00056669075
0.00061854446
0.00068913759
0.00074880764
0.00077042772
0.00071578137
0.00058095586
0.00042136524
0.00036816552
0.00045125907
0.00030075763
0.00038336221
0.0004976108
0.00058111533
0.00063230499
0.00066058746
0.00067634302
0.00067926448
0.00065590903
0.00064217076
0.00067110972
0.00074235764
0.00081729236
0.00084743656
0.00079601346
0.00064966045
0.00044353931
0.0003439625
0.00042059603
0.00030974265
0.00047157326
0.00063230594
0.00073714705
0.00079720743
0.0008238041
0.00082257927
0.00081282171
0.00081314148
0.00081512828
0.00077276599
0.00071677573
0.000728644
0.00079728267
0.00088010042
0.00090758795
0.00084510968
0.00068341709
0.0004427337
0.00028316109
0.00033517214
0.00051633492
0.00071802085
0.00084982633
0.00092409008
0.00095705622
0.00095807494
0.00093413012
0.00089180166
0.00084724163
0.0008347513
0.0008525472
0.00083168261
0.00076511702
0.00077274199
0.00085921796
0.00093954269
0.00094763527
0.00086046506
0.00066503282
0.00038120558
0.00030163951
0.00034091519
0.00051883441
0.00076112088
0.00092382588
0.0010152983
0.0010569573
0.0010582613
0.0010328189
0.00099498737
0.00094769465
0.00089201452
0.00083098644
0.00078457604
0.00082457728
0.00083110255
0.00078767604
0.0008243077
0.00092878404
0.00098425347
0.00095959084
0.0008298156
0.00058740745
0.00033033863
0.00031807538
0.00043561834
0.00046695913
0.00074071712
0.00094431465
0.0010551225
0.0011005957
0.0011003097
0.0010747607
0.0010315108
0.00097404584
0.00091064703
0.00085043891
0.00080648672
0.00076504675
0.0007344096
0.00078458071
0.00080337264
0.00080804639
0.00089312824
0.00098041381
0.00099596376
0.00092380225
0.00074697918
0.00046467274
0.00027605847
0.00041980326
0.0006483389
0.00090109133
0.0010426873
0.0010938532
0.0010887853
0.0010525516
0.00099917526
0.0009373078
0.00087270224
0.00080020827
0.00073252823
0.00068679788
0.00067364302
0.00066863953
0.00067644001
0.00073187137
0.00077733041
0.00084189122
0.00095392232
0.00099794054
0.00096971143
0.00084314879
0.0006022182
0.00032532121
0.00034985362
0.00052673814
0.0007874071
0.00097523192
0.0010471997
0.0010380646
0.00098922174
0.00093635925
0.00090051663
0.00087549601
0.00079830783
0.00071304058
0.00064163431
0.00057242505
0.00054597614
0.00057450701
0.00060814466
0.00064532122
0.00070335737
0.00077923783
0.00090758959
0.00098228458
0.00097996073
0.00089650417
0.0006985106
0.00041704052
0.00032389555
0.00049340546
0.00064464776
0.00085524634
0.00096066542
0.00096297761
0.00091171787
0.00086560224
0.00087663611
0.00089837798
0.00081678366
0.00069794534
0.00055387563
0.00033135849
0.00019463943
0.00015978313
0.00021294368
0.00041036522
0.00057424607
0.00063264164
0.00070904658
0.00084752608
0.00095049097
0.00096911032
0.0009209734
0.00075617773
0.00050137747
0.00033300548
0.00054303126
0.00071866842
0.00085981767
0.00088853605
0.00083981758
0.00079148264
0.00084031214
0.00092965399
0.00086484277
0.0006869733
0.00055752794
0.00023893903
8.9110932e-05
6.9815023e-05
6.6624617e-05
7.3918394e-05
0.00013957758
0.00039676603
0.00057756882
0.00064592649
0.00078542836
0.00091097214
0.00095056884
0.00092644875
0.00078662287
0.0005582873
0.00035044274
0.00052583067
0.00059229156
0.0007428025
0.00081138403
0.00079367281
0.00073644459
0.00078363687
0.00093599474
0.00090350852
0.00073015636
0.0006137916
0.00039636565
9.1287617e-05
6.6077785e-05
6.703648e-05
4.8576114e-05
6.7086148e-05
8.3543612e-05
0.00022882989
0.00050814671
0.00059977938
0.00073690545
0.000872118
0.00093124804
0.00091987579
0.00079924091
0.00059014681
0.00037506779
0.00045506711
0.00062092302
0.0007177839
0.00073490807
0.00070688258
0.00071381861
0.00089062577
0.00094762349
0.00079363719
0.00069053737
0.00058224877
0.00030009454
7.9525575e-05
6.6597569e-05
9.370314e-05
6.9083562e-05
6.498382e-05
7.863418e-05
0.00016169972
0.00045450627
0.00056994967
0.00071305651
0.00084045973
0.00091126501
0.0009035154
0.00079699847
0.00058691542
0.00039944805
0.00046874522
0.00063949173
0.00065589137
0.00065746404
0.00065689671
0.00076743475
0.00095132412
0.00086922504
0.0007846821
0.00067388537
0.00058004669
0.00032666527
9.3953164e-05
6.9273968e-05
7.8393202e-05
6.9872153e-05
7.4356343e-05
8.3415841e-05
0.00015862169
0.00044996183
0.00057046258
0.00071092213
0.00082262999
0.0009021906
0.000898825
0.00077025975
0.0005504759
0.000418756
0.00050106671
0.00063158893
0.00059501036
0.00058834668
0.00064145098
0.00083528007
0.00091036724
0.00086453111
0.00079629053
0.00068841394
0.00061405183
0.00043287646
0.00015516493
7.4770317e-05
7.2237219e-05
7.4476038e-05
7.7066669e-05
0.00010011218
0.00024877439
0.00050432776
0.00060848318
0.00071812215
0.0008420784
0.00092701705
0.00087620976
0.0006936198
0.00050853324
0.00045106134
0.00052439146
0.00058571193
0.00053561174
0.00053734314
0.0006387639
0.00083974288
0.00088142397
0.00088118216
0.0008158005
0.00073103782
0.00066814793
0.00056132006
0.00033594665
0.00014378533
9.175267e-05
9.2527625e-05
0.00012173226
0.00021413049
0.00043602829
0.00057337119
0.00064919755
0.00078129107
0.00091184701
0.00091706558
0.00077842028
0.00060239803
0.00051336305
0.00048698105
0.00056885821
0.00066184997
0.00047325381
0.0004902237
0.00062424446
0.00080910415
0.00088024126
0.00089430706
0.00083668882
0.00077334649
0.00075538979
0.00065033545
0.00053981701
0.00040360012
0.00028799165
0.00027947602
0.00034103004
0.00046083541
0.00056856049
0.00062969656
0.00075795414
0.00087495072
0.00089652265
0.00080083306
0.00066272257
0.0005742969
0.00053165422
0.00048086779
0.00042036
0.00043570975
0.00058475591
0.00077180011
0.00086882974
0.00089761103
0.00084992251
0.00079601677
0.00082677613
0.00077687499
0.00062901344
0.00056163016
0.00051789926
0.00050873906
0.00053348157
0.00057473109
0.00063015472
0.00073429145
0.00081559623
0.00082923549
0.00077528151
0.00069102009
0.00062445388
0.00058337018
0.00051672409
0.00043877283
0.00041080782
0.00036547187
0.00051887871
0.0007129672
0.00083620024
0.00088545223
0.00085188871
0.00079847826
0.00083173362
0.00089763239
0.00079145303
0.00065942836
0.00060425089
0.00058517148
0.00060095502
0.00064074741
0.00069978467
0.00075750121
0.00076973135
0.00074998496
0.00071065158
0.00066998239
0.00062950898
0.00056212784
0.00044368568
0.00041595273
0.00030550192
0.00042574096
0.00062920536
0.00077757857
0.00085466503
0.00084104054
0.00078547879
0.00079446854
0.0009043282
0.00093515035
0.0008322148
0.00076973486
0.00074693628
0.00074225984
0.00075440555
0.00077431894
0.0007848821
0.00077846848
0.00075477593
0.00071887881
0.00067029727
0.00059504942
0.00047054854
0.00038506895
0.00030811725
0.00032538763
0.0005090139
0.00068749086
0.00079817194
0.00081614267
0.00076629649
0.00073801416
0.00082099788
0.00094280491
0.0009531339
0.00089156035
0.00086806743
0.00085936895
0.00085643828
0.00085147671
0.0008381988
0.00081179577
0.00076905214
0.00070574686
0.00061237542
0.00047940374
0.00035184067
0.00040889047
0.00030144848
0.00035963027
0.00055548998
0.00070528192
0.00076833384
0.00074455267
0.00069394943
0.00071453117
0.00082658505
0.00092308544
0.00093842855
0.00092034955
0.00091092187
0.00089323632
0.00087035289
0.00083722195
0.00078761617
0.00071516226
0.00060999941
0.00046786306
0.00033668648
0.00034152691
0.00026880818
0.00038963634
0.00056196706
0.00067970038
0.00070947855
0.00067186499
0.00063736011
0.00067888675
0.00077712833
0.00084540714
0.00085717611
0.00085083472
0.0008364832
0.00080336849
0.00075173727
0.00067476893
0.00056279082
0.00041496742
0.00029006968
0.00028296414
0.00030250598
0.000383493
0.00053416192
0.00063252002
0.00065087224
0.00060762839
0.00056838673
0.00059616038
0.0006644144
0.00070448581
0.00070405272
0.00067770902
0.00063046861
0.00055975332
0.00046102314
0.0003472235
0.00028630742
0.00031541975
0.00032225869
0.00038096087
0.00048949881
0.00057159657
0.00059432804
0.00054685173
0.00049204054
0.0004773911
0.000500622
0.0005072713
0.00047879839
0.0004224374
0.00034986602
0.00028998938
0.00027442345
0.00035653699
0.0003796749
0.00044840923
0.00050112561
0.00054680365
0.00051971315
0.00045121695
0.00039724338
0.00036977119
0.00034838371
0.0003308282
0.00031360549
0.00037340159
0.00052416042
0.00050814351
0.00049986214
0.00049164911
0.00050275124
0.00053102822
0.0006701437
0.00076834322
0.00080375321
0.0008013229
0.00082575789
0.00083871343
0.00083689015
0.00078276162
0.00076652606
0.00041014101
0.00047256935
0.00051317927
0.00056192125
0.00061485184
0.00068200183
0.00076918825
0.00087198285
0.00095745315
0.00098587138
0.00091885497
0.000813623
0.00063633205
0.00062453095
0.00037485391
0.00043245746
0.00051620726
0.00058908313
0.00064454072
0.00067942379
0.00069510476
0.00070043286
0.00071553309
0.00076991657
0.00086995242
0.00098567549
0.0010516596
0.0010325384
0.00090683565
0.00068642275
0.00052004043
0.00040056726
0.00051556619
0.00065341731
0.00078700426
0.00088703406
0.00094925955
0.00097604003
0.00097308377
0.00094407215
0.00089539847
0.00084513335
0.00083736571
0.00090750712
0.0010246443
0.0011136337
0.0011163
0.0009585618
0.00072158289
0.000489904
0.0004310411
0.00062156686
0.00083771734
0.0010301981
0.0011696411
0.0012565424
0.0013009033
0.0013106802
0.0012926713
0.0012516465
0.0011937424
0.0011146912
0.0010224602
0.00096301848
0.00098960416
0.0010926833
0.0011870704
0.0011612405
0.00097779076
0.00069673608
0.00044802994
0.00048748359
0.00068020814
0.0009459649
0.0011843885
0.0013476477
0.001440342
0.0014819619
0.0014892943
0.0014706604
0.0014290709
0.0013690448
0.00130424
0.0012534799
0.0011998353
0.0011222575
0.0010598117
0.0010788834
0.0011772799
0.0012466005
0.0011741324
0.00093683929
0.00062457752
0.00041395395
0.00065188942
0.00096136183
0.0012455052
0.0014256781
0.0015074943
0.0015266892
0.0015145421
0.001484477
0.0014360467
0.0013695695
0.0012935963
0.0012197602
0.0011629285
0.0011526128
0.001161522
0.0011386057
0.0011158399
0.0011622266
0.0012569102
0.0012766587
0.0011295534
0.00082301072
0.00051902547
0.00040017841
0.00055353609
0.00091712528
0.0012282981
0.0014198718
0.0014815371
0.0014687493
0.0014358719
0.0014027114
0.0013519507
0.0012662613
0.001155298
0.0010446172
0.00095896737
0.00091140154
0.00090989481
0.00097846804
0.0010702122
0.0011185155
0.0011581964
0.0012427844
0.0013112673
0.0012485462
0.00099780361
0.00066189015
0.00040793817
0.00079992792
0.0011223422
0.0013466752
0.0014068338
0.0013660945
0.0013224202
0.0013096378
0.0012842348
0.0011888675
0.0010264303
0.00084745284
0.00069771225
0.00060632406
0.00058004789
0.0006062962
0.00069094689
0.00084845411
0.0010094962
0.0011192236
0.0012184142
0.0013111466
0.0013087326
0.001120902
0.00079125378
0.0004749815
0.00041582249
0.00074023855
0.00095132611
0.0012376624
0.0013247161
0.0012650381
0.0012026137
0.0012234225
0.0012557194
0.0011799286
0.00096826045
0.00070283665
0.00047089812
0.00030799768
0.00023077074
0.0002286973
0.00029629153
0.00041285504
0.0005895464
0.00081734076
0.0010184585
0.0011713733
0.0012918706
0.0013314089
0.0011956262
0.00089311572
0.00053681792
0.00040423956
0.00073541617
0.0010815316
0.0012450595
0.0011943842
0.0010996861
0.0011210671
0.0012289269
0.0012232209
0.0010026373
0.00066831716
0.00036626012
0.00016287027
7.840379e-05
6.6125894e-05
6.7469541e-05
9.8595904e-05
0.00019279625
0.00036828697
0.00061736916
0.00088074196
0.0010987317
0.0012586924
0.001331502
0.0012331852
0.00095908077
0.00058681686
0.00039682996
0.00078776312
0.0011184193
0.0011551204
0.0010321166
0.00099849516
0.0011480111
0.0012600988
0.0011186107
0.00077145582
0.00042604209
0.00016944059
6.332523e-05
5.7142958e-05
5.8786623e-05
5.8032267e-05
5.7833067e-05
8.6454287e-05
0.0002169454
0.0004582106
0.00074809487
0.0010165455
0.001218308
0.0013184033
0.001243602
0.00098977869
0.00062439106
0.00039748675
0.000468674
0.00087661147
0.0010828594
0.0010276108
0.00089919626
0.0010009525
0.0012146429
0.0012356963
0.00098386101
0.00063528651
0.00032248833
0.00010041817
5.4161005e-05
5.9341072e-05
6.5417165e-05
6.1841085e-05
5.9135896e-05
6.0620488e-05
0.0001385919
0.00035754414
0.00064967372
0.00094586589
0.0011808953
0.0013001325
0.0012332195
0.00098886203
0.00063152461
0.00040194049
0.00049294674
0.0009775235
0.00099664027
0.00089878284
0.00083485408
0.0010580336
0.0012461684
0.0011780413
0.0009283978
0.00061696217
0.0002905546
8.0140922e-05
5.4828795e-05
6.7583875e-05
9.2567363e-05
8.2030788e-05
5.8119863e-05
5.9555291e-05
0.0001102943
0.0003146632
0.00059644318
0.0009055851
0.0011602219
0.0012819825
0.0012048469
0.00095224133
0.00060450936
0.00042567328
0.00057531663
0.00088467857
0.00089518355
0.00079789373
0.00082507219
0.0011071753
0.0012363325
0.0011568944
0.00095399826
0.00066156206
0.00032261218
9.3981075e-05
5.5717375e-05
6.2407466e-05
9.7331045e-05
8.8248064e-05
5.7050054e-05
6.0316499e-05
0.00012640115
0.00032505448
0.00059354191
0.00090901734
0.0011651764
0.0012658789
0.0011546013
0.00087972594
0.00056096187
0.00041308954
0.00067599451
0.00090171066
0.00079038511
0.00073195341
0.00083563821
0.001120847
0.0012178422
0.0011686212
0.0010138162
0.00076109648
0.00042560932
0.00015457068
6.4051524e-05
5.4098099e-05
5.4315731e-05
5.5330723e-05
5.6522602e-05
8.1726101e-05
0.0001828013
0.00038151013
0.00065132632
0.00096765218
0.0011992941
0.0012388958
0.0010675527
0.00077537313
0.00052667327
0.0004448602
0.00076339987
0.00094070267
0.00070982023
0.00068992642
0.00083601053
0.0011037743
0.0012011178
0.00117763
0.0010811447
0.00089791526
0.00059101474
0.00028825826
0.00013265663
8.1946365e-05
6.557281e-05
6.6820809e-05
8.7122347e-05
0.00015336148
0.00028893293
0.00050344717
0.00079023977
0.0010807722
0.0012284907
0.0011668978
0.00094222308
0.00067765356
0.00053145801
0.00052413543
0.00085991733
0.00064467377
0.00064909015
0.0008131768
0.0010708519
0.0011753666
0.0011692772
0.0011258313
0.0010375243
0.00080876146
0.0005027976
0.00029346797
0.0002037131
0.00016474373
0.00016768391
0.00021689325
0.00031935978
0.00048700938
0.00072348194
0.000988994
0.001175587
0.0011882317
0.0010364223
0.00080517048
0.00061805904
0.0005511417
0.00059074532
0.0005974217
0.00060126811
0.00076626606
0.0010225647
0.0011372697
0.0011412362
0.0011256742
0.0011229659
0.0010248581
0.00078744735
0.00054982164
0.00042609724
0.0003908556
0.00040309071
0.00046847954
0.00059031711
0.00076558569
0.00096600249
0.0011227639
0.0011605813
0.0010646787
0.00088764506
0.00071294237
0.00060516273
0.00057361347
0.00061846166
0.00053508744
0.0005430639
0.00069333242
0.00095333178
0.0010876255
0.0011009886
0.0010866971
0.001122097
0.001143118
0.001051441
0.00087389945
0.00072422272
0.00067433169
0.00069103859
0.00076005594
0.00086577096
0.00098770982
0.0010853977
0.0011124923
0.0010509977
0.00092785407
0.00079537275
0.00068298988
0.00059453412
0.00053083481
0.00066333098
0.00048192295
0.00046972271
0.0005949346
0.00085400699
0.0010205932
0.0010546688
0.0010266767
0.0010540748
0.0011311671
0.0011638139
0.0011118186
0.0010136265
0.00095549752
0.00094977207
0.00097918078
0.0010266518
0.0010661897
0.001071845
0.0010296733
0.00094837685
0.00085167286
0.00074615385
0.00063049894
0.00053170142
0.00051316239
0.00039674925
0.0004870393
0.00071702365
0.00091976405
0.00099828538
0.00097122007
0.00095285815
0.001019124
0.0011181674
0.0011670803
0.0011496322
0.0011099365
0.0010852636
0.0010772459
0.0010728518
0.0010577622
0.0010224608
0.00096554569
0.00088886941
0.00079063157
0.00066610582
0.00054218248
0.0004803157
0.00035802745
0.00055765126
0.00076958637
0.00090610926
0.00092481084
0.00087476037
0.00087236271
0.00094883071
0.0010478447
0.0011079867
0.0011213976
0.0011113089
0.0010925265
0.0010659326
0.0010282165
0.00097508861
0.00090152462
0.00080066137
0.00067170378
0.00053698852
0.00046133821
0.0004761897
0.00039494304
0.0005914072
0.00075412069
0.00084843484
0.00083009551
0.00077885463
0.00077262335
0.0008342618
0.00091659087
0.00097120692
0.00099048962
0.00098444228
0.00095785249
0.00091042121
0.00083957124
0.00074283317
0.00062378219
0.00050416721
0.00043634961
0.00043520471
0.00042942071
0.00056909358
0.00071397233
0.00076510441
0.0007425267
0.00068724501
0.00065535341
0.0006827808
0.00073414977
0.0007681896
0.0007716527
0.00074534982
0.00069431154
0.00062083909
0.00053442464
0.00044598206
0.00038663378
0.00040905952
0.00047197566
0.0005310956
0.00066047617
0.00069628112
0.00069111766
0.00062442604
0.00055130609
0.00051768961
0.00051167343
0.00050710643
0.00048764821
0.00045456009
0.00041516458
0.00038496358
0.00036766359
0.00058622709
0.00060720089
0.00065417723
0.00065472416
0.00060198952
0.00051998161
0.00045220078
0.00040935053
0.00038537516
0.00037690568
0.00040106739
0.00039798161
0.00082576063
0.00078777575
0.00074869735
0.00068125689
0.00059938415
0.00099601182
0.0010634929
0.0010663162
0.0010461155
0.0010454137
0.0010308552
0.00099199489
0.00086908738
0.00084076958
0.00068471425
0.00077841678
0.00084104625
0.00091789647
0.0010009885
0.0010985912
0.0012033491
0.0013000574
0.0013439871
0.001307319
0.0011632836
0.0009860617
0.00070723975
0.00067933987
0.00047835603
0.00060131088
0.00068904102
0.0007657624
0.00083147668
0.00088405902
0.00092500971
0.00096618302
0.0010300939
0.0011337121
0.0012673965
0.0013889687
0.0014244218
0.0013462623
0.0011382714
0.00080153603
0.0006241532
0.00043774425
0.00056010255
0.00070152832
0.00085135057
0.00097483927
0.001061414
0.0011081708
0.0011164504
0.0010934787
0.0010596204
0.0010459334
0.0010922998
0.0012167366
0.0013761204
0.0014755189
0.0014404132
0.0011806776
0.00086104702
0.00054721739
0.00048417231
0.00064929428
0.00089636158
0.0011368587
0.0013271252
0.0014537474
0.0015226883
0.001544181
0.0015281317
0.0014785828
0.0013975936
0.0012967855
0.0012035976
0.0011711805
0.0012482747
0.0014026547
0.0015257047
0.0014599443
0.0011967842
0.00080948099
0.00049556342
0.00054826251
0.0007446952
0.001061882
0.0013680205
0.0015895974
0.0017181629
0.0017739339
0.0017811533
0.0017564755
0.0017095981
0.00164863
0.001576575
0.0014956504
0.0014025139
0.0013033828
0.0012518511
0.0013143208
0.0014685678
0.0015601113
0.0014488184
0.0011209655
0.00070404108
0.00043794751
0.00072898967
0.0011200658
0.0014905661
0.0017282122
0.0018310098
0.0018417055
0.0018050198
0.0017466198
0.0016747776
0.001595689
0.0015200402
0.0014596638
0.0014163652
0.0013893693
0.0013594666
0.0013119445
0.0012985185
0.0013930881
0.0015413448
0.0015683485
0.0013636085
0.00095541592
0.00055270107
0.00047148964
0.00060493488
0.0011090763
0.0015158305
0.0017605551
0.0018265092
0.0017808297
0.0016981786
0.0016133322
0.0015181041
0.0014010523
0.0012753842
0.0011674882
0.0011002541
0.0010826439
0.0011105299
0.0011766099
0.0012412887
0.001275821
0.0013397394
0.0014828044
0.0015913769
0.0015063771
0.0011727508
0.00071969676
0.00043832524
0.0009477684
0.0014018208
0.0017021087
0.001769191
0.0016787617
0.001564434
0.0014844995
0.0014024838
0.0012613458
0.0010659609
0.00086829457
0.00071533429
0.00063490438
0.00063744827
0.00070557868
0.00083002304
0.00099675005
0.0011487881
0.0012670397
0.0014152885
0.0015653938
0.0015698549
0.001320424
0.00087646057
0.00049224022
0.00045624291
0.0007938577
0.0011667561
0.0015817745
0.0017149786
0.0016025694
0.0014495469
0.0013886496
0.0013594534
0.0012324377
0.00097967486
0.0006875925
0.00044194848
0.00028176214
0.00021070509
0.00021955632
0.00031081398
0.00046816323
0.00068484595
0.00092971892
0.0011414686
0.0013334588
0.0015170523
0.0015834709
0.0014049691
0.00099885291
0.00055152681
0.00044307207
0.00081175169
0.0013687583
0.0016484652
0.001582434
0.0013760202
0.0013001019
0.0013391831
0.0012839949
0.0010290703
0.00066900442
0.00034998968
0.00014792275
7.6109284e-05
6.6597481e-05
6.7232681e-05
9.8587332e-05
0.00020681623
0.00041534296
0.00069657449
0.00098298235
0.0012363587
0.0014585355
0.0015689838
0.0014414209
0.0010766187
0.00060485492
0.00042823806
0.00088330861
0.0014714772
0.0015952178
0.0013796594
0.0012153535
0.0012791603
0.0013374472
0.0011738205
0.00081720016
0.00043396231
0.00016181665
6.3433658e-05
6.0473857e-05
6.0653755e-05
5.9855937e-05
5.9323817e-05
9.0758498e-05
0.00023870194
0.00051049699
0.00083428013
0.0011401178
0.0014004743
0.0015408502
0.001443452
0.0011110764
0.00065135667
0.00043625041
0.00055344438
0.0010461304
0.001491535
0.0014754836
0.0011924487
0.001164645
0.001315242
0.001309528
0.0010646207
0.00069128016
0.00031605161
9.8657829e-05
5.9052973e-05
6.1819737e-05
7.1350969e-05
5.9651452e-05
5.7070766e-05
6.3371682e-05
0.00015277175
0.00039550226
0.00072754029
0.0010656228
0.0013543539
0.0015092694
0.0014194697
0.0011053167
0.00066692136
0.00046201798
0.00064048816
0.0012276858
0.001439966
0.0013283817
0.0010700633
0.001186836
0.0013399049
0.0012736885
0.0010189957
0.00065766121
0.00027473135
8.1783314e-05
6.0032284e-05
7.2356066e-05
0.00010447784
7.762788e-05
5.5739695e-05
6.2262998e-05
0.00012591528
0.00034969784
0.00067680976
0.0010302835
0.0013318374
0.0014767389
0.0013702703
0.0010523276
0.00064450146
0.00054455002
0.00075368769
0.0010882674
0.0013482346
0.0011935844
0.0010140431
0.001222835
0.0013441125
0.0012592486
0.0010331228
0.0006880488
0.00030669583
9.5258971e-05
6.0249196e-05
6.4099767e-05
8.965724e-05
7.2417235e-05
5.6021391e-05
6.712668e-05
0.00014734522
0.00036649277
0.00068503927
0.0010433028
0.001334618
0.0014387077
0.0012917959
0.00096120531
0.00062084202
0.00050903515
0.00084144044
0.001123303
0.0012238119
0.0010887733
0.00099614846
0.0012414479
0.0013434875
0.0012720082
0.0010852291
0.00078044327
0.0004092915
0.00015441562
7.3266339e-05
5.886078e-05
5.7421809e-05
5.7259046e-05
5.9592895e-05
9.8727235e-05
0.00021293276
0.00043726114
0.00075567787
0.0011072288
0.0013528173
0.001380841
0.001179187
0.00085814051
0.00062483987
0.00057579331
0.0008927245
0.0011534956
0.0011102232
0.0010037626
0.00098602713
0.0012387753
0.0013446705
0.0012899822
0.0011517843
0.00091570726
0.00057557167
0.00028619059
0.00014465628
9.2592229e-05
7.4641402e-05
7.6754344e-05
0.00010509899
0.00018072079
0.0003288692
0.00057465211
0.00089834014
0.0012059494
0.0013541929
0.0012827555
0.0010460695
0.00078506465
0.0006659118
0.00066791198
0.0011203466
0.001006395
0.00092497336
0.00095648221
0.0012232709
0.0013427917
0.0013031536
0.0012078605
0.0010613325
0.00079717615
0.00050132348
0.00030972171
0.00021873874
0.00017818972
0.00018384743
0.00023892521
0.00035058251
0.00053760277
0.00079991259
0.0010846179
0.0012805683
0.0012972482
0.0011502038
0.00093397202
0.00076155021
0.00069907233
0.00071361398
0.00092563046
0.00084562345
0.00090234572
0.0011867548
0.0013335548
0.0013085567
0.001233604
0.0011673811
0.0010239994
0.00078606214
0.0005795487
0.00046730037
0.00042612432
0.0004366295
0.00050871763
0.00064177377
0.0008315887
0.0010458902
0.0012149716
0.0012649509
0.001183976
0.0010311646
0.00088176976
0.00077552623
0.00071082862
0.00069173453
0.00084905482
0.00076623411
0.00081775806
0.0011174942
0.0013095781
0.0013105455
0.0012323099
0.0012012646
0.0011688505
0.0010548531
0.00089705284
0.00078353334
0.0007481454
0.00076785564
0.00083659004
0.00094587765
0.0010741371
0.0011813608
0.0012231172
0.001183646
0.0010913881
0.00098795148
0.00088519146
0.00076591686
0.00064772957
0.00071490523
0.00078330478
0.00069039554
0.00070565738
0.0010010375
0.0012524285
0.0013069235
0.0012252065
0.0011768277
0.0011965467
0.001195161
0.0011358621
0.0010603181
0.0010223382
0.0010292742
0.0010677923
0.0011239972
0.0011755267
0.0011991286
0.0011829278
0.0011338305
0.0010634183
0.00096426955
0.00081609536
0.00064521271
0.00058445754
0.00063239135
0.00058635182
0.00083161337
0.0011339986
0.0012744463
0.0012262552
0.0011343962
0.0011302182
0.0011829449
0.00121333
0.0012015365
0.0011785985
0.0011707471
0.0011800273
0.0011958701
0.0012051253
0.001198195
0.0011707413
0.0011168962
0.0010213348
0.00086691944
0.00067961457
0.00058023747
0.00043501892
0.0006326489
0.00093599367
0.0011664845
0.0012163734
0.0011186945
0.0010453581
0.0010605448
0.0011280558
0.0011840511
0.0012105548
0.0012198361
0.0012223443
0.0012201985
0.0012088293
0.0011801866
0.0011231027
0.0010205657
0.00086037583
0.00066473459
0.00055525082
0.00054566095
0.00043676641
0.00069570866
0.00094618137
0.0011294422
0.001110182
0.0010154083
0.00094711514
0.00095490842
0.0010132266
0.0010708601
0.0011062603
0.0011190782
0.0011110725
0.0010808156
0.0010200488
0.00091881865
0.00077207101
0.00060449857
0.00051213609
0.00049080968
0.00049425471
0.00066733165
0.00091699702
0.0010218661
0.0010040203
0.0009229958
0.00083967778
0.0008162871
0.00083973283
0.00086842271
0.00087643608
0.00085544646
0.00080570254
0.00072416056
0.00061639999
0.00049989685
0.00042991552
0.00045702262
0.00051632535
0.00062343921
0.00081154474
0.00089700468
0.0009263421
0.00085950348
0.00075488197
0.0006744681
0.00062693173
0.00059444242
0.00055865321
0.00051756547
0.00047129923
0.00043314642
0.00042659773
0.00063704664
0.00068430605
0.00078733851
0.00083301891
0.00080891761
0.00071577018
0.00061997336
0.00055047738
0.0005114208
0.00048237791
0.00047889798
0.00044584697
0.00090189407
0.00090294976
0.0008992956
0.00086308887
0.00079447617
0.0012734765
0.0012982444
0.0012970089
0.0012862645
0.0012624242
0.0012195337
0.0011380579
0.00093805604
0.00090171758
0.0011017915
0.0012406774
0.0013393122
0.0014424406
0.0015409795
0.001635836
0.0017157066
0.0017651399
0.0017377403
0.0016203267
0.0013909757
0.0011358515
0.00078659365
0.00071524436
0.00087049486
0.00099738798
0.0010915167
0.0011876984
0.0012678566
0.0013299528
0.0013830064
0.0014420916
0.00152586
0.0016393841
0.0017582312
0.001837567
0.0018054582
0.0016452847
0.0013431438
0.00089998257
0.00064637087
0.00069088725
0.00079829302
0.00091356569
0.0010400744
0.0011495793
0.001229425
0.0012775681
0.0012938332
0.0012897993
0.0012950673
0.0013402593
0.0014527196
0.0016269243
0.0017985719
0.0018660015
0.0017583082
0.0013916897
0.00095962369
0.00058233992
0.00054134121
0.00074396842
0.00096471139
0.0012067299
0.0014236277
0.0015839991
0.0016799063
0.0017170796
0.00170737
0.0016568144
0.0015734302
0.0014820831
0.0014228787
0.0014512077
0.0015958245
0.0017913155
0.0019031743
0.0017637353
0.0013841017
0.00087357915
0.0005130976
0.0005682365
0.00077394519
0.0011049581
0.0014625652
0.0017519049
0.0019345636
0.0020182155
0.002029305
0.0019939658
0.0019323599
0.0018604341
0.0017800564
0.0016885493
0.0015874063
0.0015021451
0.0015004485
0.0016334022
0.001836685
0.001912702
0.0017126341
0.0012517377
0.00072777872
0.00043502739
0.00076110117
0.0012088186
0.0016644775
0.0019839725
0.002136745
0.0021570932
0.0020980841
0.0020011292
0.001890322
0.0017829469
0.0016939983
0.0016353187
0.0016010903
0.0015759627
0.0015394116
0.0015019844
0.0015388856
0.0017060517
0.0018928975
0.0018784296
0.0015576389
0.0010144843
0.00055046405
0.00047678319
0.00062701258
0.0012472804
0.0017553866
0.0020841113
0.0021904696
0.0021335258
0.0020005284
0.0018478164
0.0016879898
0.0015233137
0.0013712819
0.0012571893
0.0012015074
0.0012102859
0.0012686566
0.0013486817
0.0014111828
0.0014626353
0.001587018
0.0017972032
0.0019124823
0.0017457093
0.0012738473
0.00072696511
0.00043473057
0.0010673429
0.0016506869
0.0020492883
0.0021606472
0.0020504525
0.0018649599
0.0016950123
0.0015306382
0.001332289
0.0011058083
0.00089646128
0.00074386486
0.0006722778
0.00069663411
0.00080224671
0.00096661612
0.0011506354
0.0013071888
0.0014610343
0.0016789635
0.0018694114
0.0018301555
0.0014576243
0.00090093866
0.00050099105
0.00047459391
0.00083293526
0.0013602616
0.0019108636
0.0021192326
0.0019970038
0.0017630851
0.0015939782
0.0014711404
0.001285963
0.001007525
0.00070619542
0.0004621503
0.0003021812
0.00023227736
0.00024696633
0.00035682636
0.00055339275
0.00080748117
0.0010667728
0.0012988338
0.0015496515
0.0017898573
0.0018435162
0.0015651123
0.0010407931
0.00056707527
0.00048855851
0.00086843033
0.0016417224
0.0020442796
0.0020121486
0.0017291491
0.0015298396
0.0014583295
0.0013406117
0.0010666753
0.0007010153
0.00037856601
0.00017709601
9.4171272e-05
8.1372663e-05
8.2312042e-05
0.00012037261
0.00025158792
0.00050190066
0.0008112843
0.001115289
0.0014154382
0.0016977929
0.0018153843
0.0016104554
0.0011335725
0.00062742071
0.00051064014
0.00096558448
0.0018161749
0.0020449519
0.0018060084
0.0015029888
0.0014346108
0.001410737
0.0012216042
0.0008640451
0.00046971602
0.00019151356
8.4155678e-05
7.2565114e-05
7.3502911e-05
7.3678143e-05
7.4972847e-05
0.00011972862
0.00030104626
0.00060588798
0.00094914012
0.0012934561
0.0016108862
0.0017673951
0.0016100569
0.001179026
0.00068143653
0.00054503501
0.00075950729
0.0011997784
0.0019014262
0.0019701902
0.0015892104
0.0013851562
0.0014285368
0.0013747234
0.0011161301
0.00073256377
0.00034243258
0.00012432346
7.6843769e-05
7.4969692e-05
8.6120105e-05
7.3374948e-05
6.7528686e-05
8.2289018e-05
0.00020235274
0.00047880154
0.00083163108
0.001203442
0.0015435368
0.0017149735
0.0015753523
0.0011774027
0.00071235096
0.00059213603
0.00084944701
0.001473315
0.0019023504
0.0018530607
0.0014215883
0.0013590493
0.001444629
0.0013396063
0.0010613689