/*--------------------------------*- C++ -*----------------------------------*\
| =========                 |                                                 |
| \\      /  F ield         | OpenFOAM: The Open Source CFD Toolbox           |
|  \\    /   O peration     | Version:  2406                                  |
|   \\  /    A nd           | Website:  www.openfoam.com                      |
|    \\/     M anipulation  |                                                 |
\*---------------------------------------------------------------------------*/
FoamFile
{
    version     2.0;
    format      ascii;
    arch        "LSB;label=32;scalar=64";
    class       volScalarField;
    location    "750";
    object      nut;
}
// * * * * * * * * * * * * * * * * * * * * * * * * * * * * * * * * * * * * * //

dimensions      [0 2 -1 0 0 0 0];

internalField   nonuniform List<scalar> 
150387
(
1.0900498e-05
1.7264904e-05
1.98541e-05
2.1821472e-05
2.2072047e-05
1.7895199e-05
1.1767766e-05
7.5424686e-06
3.6346436e-06
1.0320367e-05
1.2362063e-05
1.4424666e-05
1.7326736e-05
2.0423682e-05
2.3577403e-05
2.6839557e-05
2.9038235e-05
2.82803e-05
2.3826727e-05
1.6728381e-05
6.7844399e-06
8.7028381e-06
1.1308618e-05
1.5932385e-05
2.0143618e-05
2.2538014e-05
2.3373224e-05
2.4084096e-05
2.5016887e-05
2.7046383e-05
3.0359231e-05
3.323111e-05
3.4385629e-05
3.1128709e-05
2.2810816e-05
1.3138796e-05
5.5875949e-06
3.4275855e-06
9.6085474e-06
1.585078e-05
2.3451859e-05
2.8043803e-05
2.9697452e-05
2.9533392e-05
2.9395487e-05
2.9476855e-05
2.8067012e-05
2.6970739e-05
2.8279143e-05
3.2092052e-05
3.6238577e-05
3.8320026e-05
3.6028874e-05
2.7795943e-05
1.5735722e-05
6.3203599e-06
2.7516055e-06
9.5242144e-06
2.0464637e-05
3.0620897e-05
3.550594e-05
3.6490664e-05
3.49945e-05
3.2258631e-05
2.9886623e-05
2.9235055e-05
3.0060995e-05
2.9485496e-05
2.7945828e-05
2.9257788e-05
3.3145052e-05
3.8070813e-05
4.0585979e-05
3.8591192e-05
3.0356098e-05
1.5602356e-05
7.0018051e-06
1.0203462e-05
2.2502428e-05
3.4473622e-05
3.9951089e-05
4.0724246e-05
3.8619446e-05
3.5183546e-05
3.1229115e-05
2.7219725e-05
2.4399447e-05
2.3871607e-05
2.5814419e-05
2.7710962e-05
2.7260628e-05
2.933105e-05
3.4553755e-05
3.9704776e-05
4.1861903e-05
3.9295458e-05
2.9685757e-05
1.3391725e-05
6.0090894e-06
9.4257691e-06
2.1395996e-05
3.5921819e-05
4.2889444e-05
4.456011e-05
4.2849552e-05
3.899805e-05
3.4421434e-05
3.0054624e-05
2.597557e-05
2.2186898e-05
1.9432834e-05
1.8119915e-05
2.0903569e-05
2.4288904e-05
2.5803464e-05
2.9851316e-05
3.6538526e-05
4.0953155e-05
4.2253544e-05
3.8090532e-05
2.6013767e-05
1.0348405e-05
5.0362053e-06
3.5842856e-06
1.6923382e-05
3.3861843e-05
4.3665505e-05
4.6550958e-05
4.5463334e-05
4.1772385e-05
3.6974705e-05
3.1710706e-05
2.65025e-05
2.1975301e-05
1.8419341e-05
1.6013278e-05
1.457159e-05
1.4337466e-05
1.7519379e-05
2.1296819e-05
2.4996158e-05
3.1665253e-05
3.8067286e-05
4.1371061e-05
4.1085341e-05
3.4693842e-05
1.9296617e-05
8.4831524e-06
1.2882927e-05
2.8066689e-05
4.1729067e-05
4.6695647e-05
4.6161658e-05
4.2911601e-05
3.7887354e-05
3.1682579e-05
2.5524899e-05
2.0367422e-05
1.6296273e-05
1.3507534e-05
1.1848659e-05
1.1060946e-05
1.0843158e-05
1.1679177e-05
1.5023569e-05
1.9638806e-05
2.5533675e-05
3.358725e-05
3.8574811e-05
4.1017261e-05
3.8449233e-05
2.7813443e-05
1.2146814e-05
9.3850519e-06
1.9501512e-05
3.5701382e-05
4.4497873e-05
4.5466411e-05
4.2197046e-05
3.7105238e-05
3.096802e-05
2.5131306e-05
2.0507541e-05
1.5629305e-05
1.2615625e-05
1.1442767e-05
1.0547535e-05
1.0033298e-05
9.9419019e-06
9.8238163e-06
1.1008408e-05
1.4376092e-05
1.9794906e-05
2.8200709e-05
3.4849691e-05
3.8746884e-05
3.9356114e-05
3.2863714e-05
1.8164376e-05
1.080886e-05
9.9422903e-06
2.6443785e-05
3.9046941e-05
4.3057399e-05
4.0688682e-05
3.5716737e-05
3.0274238e-05
2.6086288e-05
2.2060376e-05
1.590192e-05
1.1759432e-05
9.9380177e-06
6.6417009e-06
4.4319942e-06
4.1393464e-06
5.1148242e-06
8.3757154e-06
1.0063801e-05
1.1367717e-05
1.5341187e-05
2.3078062e-05
3.07205e-05
3.5677279e-05
3.8629455e-05
3.5222745e-05
2.3650836e-05
1.2146317e-05
1.4837169e-05
3.0579539e-05
3.8969523e-05
3.9048651e-05
3.4510299e-05
2.9641154e-05
2.7472128e-05
2.5310564e-05
1.8081298e-05
1.1191814e-05
9.5574719e-06
5.2159973e-06
3.5265365e-06
4.6663135e-06
5.0650982e-06
4.5437487e-06
3.9980023e-06
8.1248213e-06
1.0393471e-05
1.2501661e-05
1.9009539e-05
2.6999971e-05
3.2908931e-05
3.7254947e-05
3.6300128e-05
2.7350496e-05
1.4186556e-05
8.0380747e-06
2.0815317e-05
3.2022293e-05
3.6310713e-05
3.432056e-05
2.9325618e-05
2.8281865e-05
2.9049917e-05
2.1338208e-05
1.2882317e-05
9.6891865e-06
7.9350536e-06
3.4431462e-06
5.3536909e-06
4.2303585e-06
3.5329628e-06
5.8407616e-06
4.6319242e-06
5.4694115e-06
9.7232385e-06
1.0973141e-05
1.6371966e-05
2.4160814e-05
3.0862228e-05
3.6018055e-05
3.678433e-05
2.933022e-05
1.6170822e-05
1.1598473e-05
2.186109e-05
3.0707413e-05
3.2461641e-05
3.0205939e-05
2.8366227e-05
3.1902675e-05
2.6513768e-05
1.6659704e-05
1.1848343e-05
9.6913397e-06
6.5479504e-06
3.8083644e-06
4.8762726e-06
2.2918795e-06
4.0549854e-06
6.1618481e-06
6.0374561e-06
4.6075888e-06
9.1318229e-06
1.013267e-05
1.5161629e-05
2.2235645e-05
2.9409637e-05
3.5230706e-05
3.6924374e-05
2.907993e-05
1.7864428e-05
1.1288369e-05
2.2078359e-05
2.7518942e-05
2.8798066e-05
2.8150071e-05
3.0968942e-05
3.2623435e-05
2.2501867e-05
1.6771805e-05
1.1987204e-05
1.0154186e-05
6.8962211e-06
3.6841293e-06
5.2181475e-06
4.0567622e-06
4.5183197e-06
7.1560276e-06
5.8922383e-06
4.7228919e-06
8.9286788e-06
9.9211102e-06
1.4779736e-05
2.155674e-05
2.9580979e-05
3.6206082e-05
3.624129e-05
2.6698574e-05
1.8576858e-05
1.0832339e-05
2.0471736e-05
2.450981e-05
2.5687482e-05
2.8025569e-05
3.4310392e-05
3.0054814e-05
2.3345771e-05
1.8317552e-05
1.339493e-05
1.0914784e-05
8.5296497e-06
4.1818551e-06
4.6375673e-06
6.43833e-06
6.6652328e-06
5.7645818e-06
4.3405915e-06
6.0369477e-06
9.0981323e-06
1.063506e-05
1.5410426e-05
2.3290628e-05
3.266563e-05
3.7621502e-05
3.2732245e-05
2.3739868e-05
1.9590564e-05
4.6262895e-06
1.3203757e-05
2.1254952e-05
2.3718462e-05
2.8776902e-05
3.5211633e-05
3.0152486e-05
2.5968042e-05
2.1025804e-05
1.6010874e-05
1.2422456e-05
1.0112693e-05
7.0907021e-06
4.2606097e-06
4.1432327e-06
4.1271166e-06
4.1866172e-06
5.3170764e-06
8.6236162e-06
9.813282e-06
1.2217676e-05
1.9044714e-05
2.8835386e-05
3.595377e-05
3.4726797e-05
2.7836852e-05
2.36869e-05
1.9072185e-05
7.7264222e-06
9.0824019e-06
1.7663186e-05
2.1769037e-05
2.9210763e-05
3.5686399e-05
3.2727376e-05
2.946102e-05
2.4455697e-05
1.9541387e-05
1.6168688e-05
1.1568021e-05
9.3996607e-06
8.0869316e-06
6.7842307e-06
6.5620655e-06
7.3477715e-06
8.9992916e-06
1.0150207e-05
1.1665441e-05
1.7522671e-05
2.5956539e-05
3.2769195e-05
3.3698816e-05
2.9588155e-05
2.6466143e-05
2.4179202e-05
1.7838988e-05
1.4213485e-05
1.8909994e-05
2.832335e-05
3.6409016e-05
3.5754355e-05
3.3080391e-05
2.8288834e-05
2.3484074e-05
2.1425495e-05
1.6470875e-05
1.0973256e-05
9.37958e-06
9.0062204e-06
9.3038733e-06
9.7738011e-06
1.0541178e-05
1.2291431e-05
1.7151284e-05
2.3560926e-05
2.878462e-05
3.101505e-05
2.983702e-05
2.8332529e-05
2.7248876e-05
2.2469105e-05
1.0013462e-05
1.1794961e-05
1.4606864e-05
2.5337333e-05
3.5422059e-05
3.7869094e-05
3.6382477e-05
3.2121861e-05
2.7417627e-05
2.5696578e-05
2.4413915e-05
1.7622157e-05
1.2640579e-05
1.1063976e-05
1.0848821e-05
1.1746931e-05
1.3722691e-05
1.711382e-05
2.1916677e-05
2.6072982e-05
2.9050818e-05
3.0039576e-05
3.0101109e-05
2.9506022e-05
2.5921391e-05
1.5563193e-05
7.8790773e-06
1.0615398e-05
1.9545258e-05
3.2042382e-05
3.7805253e-05
3.8650349e-05
3.5355109e-05
3.0707437e-05
2.8654936e-05
3.0028521e-05
2.7267691e-05
2.1116705e-05
1.8506588e-05
1.8141086e-05
1.8885504e-05
2.0739854e-05
2.3733025e-05
2.7153647e-05
3.0250471e-05
3.1878282e-05
3.2259704e-05
3.1464975e-05
2.8067566e-05
1.931493e-05
1.0401805e-05
8.0201732e-06
1.2438616e-05
2.482148e-05
3.4649986e-05
3.8417885e-05
3.7038917e-05
3.2886138e-05
3.0035969e-05
3.1817124e-05
3.4064229e-05
3.1137565e-05
2.7176731e-05
2.6330034e-05
2.7210978e-05
2.8894263e-05
3.1124727e-05
3.3393042e-05
3.4764906e-05
3.4874911e-05
3.3415403e-05
2.9196501e-05
2.072116e-05
1.1324851e-05
4.3011743e-06
8.6313582e-06
1.4239939e-05
2.7217529e-05
3.5125575e-05
3.6923469e-05
3.4184923e-05
3.0369741e-05
3.0522795e-05
3.4814393e-05
3.68983e-05
3.5555504e-05
3.4299838e-05
3.4695739e-05
3.5567334e-05
3.6505975e-05
3.6974941e-05
3.6531024e-05
3.4428537e-05
2.9419237e-05
2.0260798e-05
9.7507504e-06
4.7524997e-06
7.2347807e-06
1.5917408e-05
2.6642132e-05
3.3343399e-05
3.4218521e-05
3.1298775e-05
2.8754515e-05
3.0642247e-05
3.5341073e-05
3.7913106e-05
3.7754322e-05
3.7683338e-05
3.7849398e-05
3.7401517e-05
3.6137627e-05
3.3144656e-05
2.7164164e-05
1.7623972e-05
9.2126581e-06
6.4131056e-06
6.4341538e-06
1.4008864e-05
2.392269e-05
3.0426855e-05
3.1451161e-05
2.8677263e-05
2.6238528e-05
2.8124322e-05
3.2344808e-05
3.4685894e-05
3.488109e-05
3.3807214e-05
3.1513206e-05
2.7633258e-05
2.13866e-05
1.3388064e-05
8.0849763e-06
5.1090155e-06
3.9519443e-06
1.1711331e-05
2.0153962e-05
2.5754309e-05
2.8012663e-05
2.5629719e-05
2.2866339e-05
2.2536662e-05
2.4645814e-05
2.552926e-05
2.3877469e-05
2.0094325e-05
1.4979656e-05
1.0616773e-05
7.7337459e-06
4.0991678e-06
4.0171071e-06
1.3250531e-05
1.8794436e-05
2.2800458e-05
2.2980046e-05
1.9940626e-05
1.736298e-05
1.5919009e-05
1.3869476e-05
1.2187915e-05
9.54262e-06
7.5225119e-06
8.0304612e-06
1.0411435e-05
1.11566e-05
1.2056889e-05
1.2294526e-05
7.3548232e-06
8.5307689e-06
2.1989163e-05
3.4342519e-05
3.5507377e-05
3.6719879e-05
3.6304752e-05
3.1618858e-05
2.8722742e-05
1.7146946e-05
1.4954145e-05
2.4507054e-05
2.9386809e-05
3.4612879e-05
3.9988568e-05
4.5972505e-05
5.2983804e-05
6.0641882e-05
6.6422106e-05
6.678279e-05
5.4285113e-05
4.3874509e-05
1.2871734e-05
8.4364828e-06
7.3802107e-06
2.4232136e-05
3.5010346e-05
4.4970826e-05
5.3085457e-05
5.8566202e-05
6.114815e-05
6.1124253e-05
6.1194634e-05
6.5159865e-05
7.3385886e-05
8.2596254e-05
8.5604965e-05
8.1430014e-05
6.501658e-05
2.8189172e-05
1.9081534e-05
9.769914e-06
2.8504518e-05
4.8366268e-05
6.7947349e-05
8.2702815e-05
9.1806792e-05
9.5710152e-05
9.5763122e-05
9.3159741e-05
8.7870369e-05
7.9687504e-05
7.7037754e-05
8.4070287e-05
9.4270326e-05
0.00010020339
0.00010033547
7.5111351e-05
4.3004588e-05
1.4479369e-05
1.0129034e-05
3.6050899e-05
6.7857535e-05
9.5519237e-05
0.00011386844
0.00012355223
0.00012643286
0.00012434792
0.00011912167
0.00011282445
0.00010764181
0.00010288648
9.6829622e-05
9.1904797e-05
9.4924746e-05
0.00010498585
0.00011414254
0.0001108718
8.6056523e-05
4.4696536e-05
1.4579343e-05
8.3990874e-06
3.8439835e-05
7.7305915e-05
0.00011079163
0.00013114933
0.00014035575
0.00014142668
0.00013696091
0.00012893985
0.00011886648
0.00010823388
9.9695006e-05
9.5931488e-05
9.5933343e-05
9.7647879e-05
9.9007693e-05
0.00010329279
0.00011605103
0.00012489835
0.00011721541
8.5313177e-05
4.0171951e-05
1.2562596e-05
2.6822686e-05
7.2150175e-05
0.00011427372
0.00013717262
0.00014560713
0.00014460728
0.00013773101
0.00012745179
0.0001154458
0.00010305391
9.1381542e-05
8.1402538e-05
7.4771027e-05
7.5011308e-05
8.2034349e-05
9.1006509e-05
0.0001003115
0.0001111586
0.00012560848
0.00013097181
0.00011534962
7.3228508e-05
3.5249761e-05
9.9203886e-06
1.7385568e-05
6.4343344e-05
0.00010890041
0.00013309647
0.0001407082
0.00013865147
0.00012967816
0.00011870932
0.00010449831
8.8548265e-05
7.3736697e-05
6.2226723e-05
5.4357034e-05
4.9786503e-05
4.9079616e-05
5.5710124e-05
6.9652814e-05
8.6145874e-05
0.00010293253
0.00011957922
0.00013303584
0.00013061157
0.00010071632
5.7841731e-05
2.0751606e-05
4.3241328e-05
8.8954738e-05
0.00011960692
0.0001294564
0.0001278732
0.00012012297
0.00011054548
9.5761157e-05
7.6247052e-05
5.7773287e-05
4.3616807e-05
3.4258334e-05
2.9332622e-05
2.8070889e-05
2.9065249e-05
3.3435198e-05
4.552727e-05
6.5131557e-05
8.8267578e-05
0.00011039626
0.00012871434
0.00013561848
0.00011762397
7.7939706e-05
3.527866e-05
1.3209961e-05
9.5867912e-06
5.632924e-05
0.00010079073
0.00011593605
0.00011559142
0.00011053516
0.00010622362
9.4447517e-05
7.3397249e-05
5.0618215e-05
3.2626646e-05
2.0838667e-05
1.3785868e-05
1.0940688e-05
1.1384176e-05
1.4652831e-05
1.9294603e-05
2.8005644e-05
4.5289743e-05
7.0581863e-05
9.843531e-05
0.00012132127
0.00013451051
0.00012593051
9.2782323e-05
4.6786218e-05
2.3237568e-05
2.1940755e-05
7.4297498e-05
9.9693803e-05
0.00010265473
0.00010146345
0.00010125193
9.8353079e-05
7.9400929e-05
5.2755742e-05
3.0139679e-05
1.5833627e-05
7.8109448e-06
5.4667449e-06
6.3101043e-06
6.1909116e-06
6.8280391e-06
1.0169506e-05
1.7151679e-05
3.1114202e-05
5.4639811e-05
8.5308518e-05
0.00011295039
0.00013035769
0.0001283717
0.00010175963
5.6155027e-05
2.6061336e-05
1.4914533e-05
7.7664897e-05
9.0330188e-05
9.0041924e-05
9.1970418e-05
0.00010070201
9.0755257e-05
6.4603008e-05
3.6841246e-05
1.891711e-05
8.7496666e-06
6.7681045e-06
8.4504489e-06
7.3750299e-06
7.3255777e-06
7.828429e-06
6.8014444e-06
1.0933932e-05
2.2379164e-05
4.3157662e-05
7.3615344e-05
0.00010454727
0.0001249477
0.00012727584
0.00010580526
6.3543187e-05
2.8687769e-05
7.0028172e-06
3.5566381e-05
7.3491873e-05
7.9660581e-05
8.0645707e-05
9.4077461e-05
0.00010100397
8.3316433e-05
5.4643315e-05
3.0569798e-05
1.5469919e-05
6.9890458e-06
9.0210508e-06
8.8561503e-06
4.7933947e-06
5.4273805e-06
7.597462e-06
7.5371429e-06
8.1828773e-06
1.7765555e-05
3.6189787e-05
6.4975495e-05
9.7248008e-05
0.00011956629
0.00012436166
0.00010605206
6.6535169e-05
3.1113446e-05
1.4883582e-05
4.7840017e-05
6.5463769e-05
6.9619788e-05
7.6926677e-05
9.9949444e-05
9.9783427e-05
7.9225016e-05
5.3403988e-05
3.1082634e-05
1.428312e-05
6.4127303e-06
9.013357e-06
8.8420772e-06
2.4598378e-06
5.6371249e-06
7.9557685e-06
7.9366704e-06
7.639175e-06
1.6271676e-05
3.2872018e-05
6.0235481e-05
9.2509217e-05
0.00011545452
0.00012082308
0.00010348471
6.3790799e-05
2.7634828e-05
1.7102561e-05
3.7748007e-05
5.6409445e-05
6.097128e-05
7.7441788e-05
0.00010423385
0.00010032732
8.215784e-05
5.852474e-05
3.4639394e-05
1.5559063e-05
6.2467679e-06
8.780697e-06
1.0245475e-05
6.8335257e-06
1.021385e-05
8.3562661e-06
8.0760759e-06
8.5540749e-06
1.7236291e-05
3.2809731e-05
5.9543758e-05
9.1333912e-05
0.00011367307
0.0001171157
9.7437528e-05
5.620734e-05
2.8676221e-05
1.8239133e-05
3.717959e-05
4.7232021e-05
5.5131602e-05
8.0305076e-05
0.00010711579
0.00010356999
8.9672687e-05
6.6915327e-05
4.1884261e-05
2.0510654e-05
8.2425765e-06
7.0650516e-06
9.5981118e-06
9.3707317e-06
9.3186159e-06
8.8883091e-06
7.5935231e-06
1.0900788e-05
1.9931348e-05
3.6301051e-05
6.3990302e-05
9.5102803e-05
0.00011394658
0.00011139947
8.6194897e-05
4.9993877e-05
3.0969524e-05
1.4849662e-05
3.1395944e-05
3.9529519e-05
5.0998857e-05
8.0868433e-05
0.0001083051
0.00010861995
9.8048859e-05
7.7675446e-05
5.3444866e-05
2.9647604e-05
1.3939592e-05
8.0582202e-06
7.2088553e-06
7.4133385e-06
7.536744e-06
7.4071143e-06
9.3492944e-06
1.5031129e-05
2.5980533e-05
4.6020512e-05
7.5585948e-05
0.00010268391
0.00011370027
0.00010401753
7.3233215e-05
4.4480697e-05
2.7896394e-05
1.9371736e-05
3.3030879e-05
4.6322877e-05
7.7361508e-05
0.00010798664
0.00011268835
0.00010508205
8.9379676e-05
6.8991196e-05
4.46879e-05
2.4771214e-05
1.4841277e-05
1.1514221e-05
9.8469767e-06
9.7159956e-06
1.1599505e-05
1.6125153e-05
2.4816674e-05
4.0343085e-05
6.4456148e-05
9.1394135e-05
0.00010888627
0.00010887055
9.002009e-05
6.0958787e-05
3.512082e-05
2.7115006e-05
2.7327071e-05
4.0393693e-05
6.9886698e-05
0.0001043621
0.0001144327
0.0001103064
9.9461821e-05
8.5189682e-05
6.5520191e-05
4.3607259e-05
2.8509754e-05
2.2123157e-05
2.0550775e-05
2.1154554e-05
2.464713e-05
3.2004119e-05
4.4732486e-05
6.3634215e-05
8.579158e-05
0.00010331078
0.00010873482
9.9363477e-05
7.6503992e-05
5.4611234e-05
3.2035673e-05
2.2452459e-05
2.2493487e-05
3.3147322e-05
5.8392197e-05
9.5771718e-05
0.00011222927
0.00011223397
0.00010608379
9.7937938e-05
8.6189476e-05
6.9419658e-05
5.3100023e-05
4.2336549e-05
3.9653206e-05
4.1426401e-05
4.7231434e-05
5.6916952e-05
7.0614727e-05
8.6558601e-05
0.0001004141
0.00010690294
0.00010301343
8.9075849e-05
6.8578297e-05
4.5446302e-05
2.2253333e-05
8.3676533e-06
7.269274e-06
2.4240472e-05
4.3355727e-05
8.0800864e-05
0.00010438723
0.0001099957
0.00010641877
0.00010441711
0.00010093541
9.2384308e-05
8.1637221e-05
7.1850099e-05
6.8007145e-05
6.9359427e-05
7.4475139e-05
8.2768228e-05
9.2688177e-05
0.00010186347
0.00010710925
0.00010573197
9.6846166e-05
7.8625801e-05
5.1694237e-05
2.0257657e-05
1.0820405e-05
1.6519555e-05
2.7584231e-05
5.8644437e-05
8.864945e-05
0.00010229374
0.00010213965
0.00010093054
0.00010417283
0.00010598118
0.00010274466
9.7495735e-05
9.4390576e-05
9.4849666e-05
9.7876511e-05
0.00010215906
0.00010647635
0.00010927728
0.00010825617
0.00010053948
8.3672025e-05
5.8427538e-05
3.1940586e-05
2.3054216e-05
1.1715941e-05
3.3035246e-05
6.3501483e-05
8.5480497e-05
9.3551813e-05
9.1807256e-05
9.3335124e-05
0.00010074237
0.00010670467
0.00010876535
0.00010858658
0.00010905028
0.00011024908
0.00011138976
0.00011143978
0.00010846645
9.9719207e-05
8.2877317e-05
5.8910694e-05
3.3520318e-05
2.2430644e-05
1.0073179e-05
1.2571603e-05
3.419363e-05
5.8036997e-05
7.6691675e-05
8.1284866e-05
7.9668715e-05
8.0753054e-05
9.0754343e-05
9.9813538e-05
0.00010389697
0.00010587485
0.00010609901
0.00010419924
9.906768e-05
8.9099259e-05
7.3030313e-05
5.1854061e-05
3.1138191e-05
2.1441775e-05
1.028807e-05
1.1707032e-05
2.3629798e-05
5.1026436e-05
6.2575392e-05
6.7365911e-05
6.5418748e-05
6.4249238e-05
7.0739433e-05
7.9245431e-05
8.3038057e-05
8.2663737e-05
7.8286559e-05
7.0043042e-05
5.7913379e-05
4.340363e-05
2.8950167e-05
1.6584253e-05
9.3486205e-06
1.0822498e-05
2.3513007e-05
3.6283656e-05
4.2422303e-05
5.2142856e-05
5.2073617e-05
4.6979259e-05
4.6224276e-05
4.7088343e-05
4.6613668e-05
4.2690547e-05
3.6192181e-05
2.8663437e-05
2.2387303e-05
1.356012e-05
1.5531964e-05
1.264923e-05
2.9882592e-05
3.3627371e-05
3.8556924e-05
3.5564014e-05
3.198338e-05
2.8233731e-05
2.4614268e-05
2.2213349e-05
1.8012132e-05
6.43424e-06
9.2898508e-06
1.8866116e-05
1.9615421e-05
1.8383724e-05
1.3052412e-05
1.0674566e-05
2.4722997e-05
3.818491e-05
4.2206684e-05
4.4517253e-05
4.4180291e-05
3.8966036e-05
2.7706932e-05
1.7956461e-05
2.0310457e-05
3.3033827e-05
4.1217885e-05
4.9918643e-05
5.9441501e-05
6.9526011e-05
7.9810328e-05
8.9404812e-05
9.3788062e-05
9.0124392e-05
6.9396122e-05
5.3801654e-05
1.4617471e-05
9.6002318e-06
8.062214e-06
2.6383491e-05
3.7196844e-05
4.6438904e-05
5.5145111e-05
6.2919e-05
6.924219e-05
7.4523423e-05
8.0695237e-05
8.9733267e-05
0.0001016439
0.00011355098
0.00011810417
0.0001098863
8.3147227e-05
3.3871102e-05
2.0265077e-05
1.0016457e-05
2.5402232e-05
4.1618166e-05
6.1421748e-05
8.0561265e-05
9.6320061e-05
0.00010704529
0.00011213623
0.00011187143
0.00010791617
0.00010349159
0.0001037044
0.00011198526
0.0001267054
0.00013636051
0.0001337683
9.1944019e-05
4.9744844e-05
1.4534408e-05
1.0555534e-05
3.4235403e-05
6.5792627e-05
9.9190304e-05
0.00012741333
0.00014758194
0.00015953687
0.00016421277
0.00016308189
0.00015779496
0.00014971516
0.00014006878
0.00012985691
0.00012279526
0.00012662034
0.00013919736
0.00015218982
0.00014174275
0.00010558205
5.0074954e-05
1.3559846e-05
8.6906622e-06
3.9432398e-05
8.2060706e-05
0.0001250084
0.00015693719
0.00017670443
0.0001861011
0.00018737593
0.00018271756
0.00017437024
0.0001644911
0.00015484102
0.00014694544
0.00014123217
0.00013594144
0.00013306792
0.00013858233
0.00015324492
0.00016243618
0.00014800332
0.00010187088
4.2142884e-05
1.1797335e-05
2.9407883e-05
8.1333168e-05
0.00013559253
0.00017042118
0.00018733463
0.00019198441
0.0001877117
0.00017715189
0.0001631832
0.00014891791
0.00013700507
0.00012844659
0.00012307459
0.0001218235
0.00012441347
0.00012892957
0.00013500649
0.00014848037
0.00016553071
0.00016843014
0.00014219437
8.2833033e-05
3.5104582e-05
1.07867e-05
1.921281e-05
7.6751947e-05
0.00013514856
0.0001702127
0.00018318111
0.000183552
0.00017552782
0.00016021897
0.00014033916
0.00012013319
0.00010306824
9.0875887e-05
8.410477e-05
8.2345529e-05
8.4867332e-05
9.2826759e-05
0.0001056452
0.00012118791
0.00013820834
0.00016054407
0.00017486077
0.00016502338
0.00011915817
5.9899635e-05
1.9959323e-05
5.1134919e-05
0.00011369124
0.00015625669
0.00017064211
0.00016896171
0.00016165183
0.00014649098
0.00012594294
0.00010076965
7.7394581e-05
5.9345955e-05
4.7606468e-05
4.2128425e-05
4.292318e-05
4.8320932e-05
5.8033016e-05
7.4076706e-05
9.5881204e-05
0.00012089477
0.00014888577
0.00017321708
0.00017574804
0.0001433937
8.4605041e-05
3.4048212e-05
1.4268051e-05
9.6273396e-06
6.9620782e-05
0.00013243196
0.00015604629
0.00015438574
0.00014838086
0.00013964634
0.00012422743
9.7223e-05
6.8076081e-05
4.4280971e-05
2.764378e-05
1.803167e-05
1.4195099e-05
1.5150092e-05
2.1422125e-05
3.1703277e-05
4.6941456e-05
6.973219e-05
9.9196637e-05
0.00013293625
0.00016531537
0.00017857018
0.00015737416
0.0001044444
4.4623801e-05
2.4222711e-05
2.1792784e-05
9.578475e-05
0.0001361157
0.00014063617
0.00013471348
0.0001344302
0.00013047397
0.00010732246
7.3799727e-05
4.3490061e-05
2.2540483e-05
1.0853466e-05
8.3877548e-06
8.4825969e-06
7.8650521e-06
8.7904269e-06
1.5064086e-05
2.8101446e-05
4.9094214e-05
7.9344734e-05
0.00011685025
0.00015492248
0.00017662875
0.00016405747
0.00011773212
5.5058814e-05
2.6919695e-05
1.6664765e-05
0.00010465261
0.0001281248
0.00012217685
0.00012388562
0.00013350793
0.00012452113
9.3119328e-05
5.6654834e-05
2.8946936e-05
1.2529233e-05
9.3719758e-06
9.8590796e-06
7.8815568e-06
8.0063998e-06
8.5437805e-06
8.911988e-06
1.7114027e-05
3.5339051e-05
6.4459179e-05
0.00010356223
0.00014518219
0.00017247763
0.00016570238
0.00012485688
6.4575741e-05
3.0756392e-05
7.773483e-06
4.2757555e-05
0.00010404651
0.00011500447
0.00010711508
0.00012308905
0.00013680034
0.00011926141
8.4080776e-05
4.8546908e-05
2.2357116e-05
9.590805e-06
1.0701941e-05
9.5922163e-06
4.8554983e-06
4.7238137e-06
7.1199431e-06
8.679309e-06
1.2372074e-05
2.7835696e-05
5.5352018e-05
9.5039578e-05
0.00013823909
0.00016805838
0.00016386547
0.00012636662
6.9152189e-05
3.5525816e-05
1.6763075e-05
6.0655509e-05
9.6354735e-05
0.00010020232
9.8824854e-05
0.00012945071
0.00013948314
0.00011823433
8.2418153e-05
4.6994491e-05
1.9690317e-05
9.253174e-06
1.0762622e-05
9.4562801e-06
2.6083756e-06
5.4245895e-06
7.2638591e-06
8.8888274e-06
1.1393434e-05
2.5421591e-05
5.1777058e-05
9.1974195e-05
0.00013525454
0.00016405746
0.000159195
0.00012204487
6.6099092e-05
3.2238453e-05
1.9292389e-05
4.4512638e-05
8.5069328e-05
8.6696427e-05
9.5964237e-05
0.0001360911
0.00014216438
0.00012103803
8.6077864e-05
5.013917e-05
2.1737903e-05
9.6960241e-06
1.0399071e-05
1.0716532e-05
6.8649701e-06
9.2517341e-06
8.3014885e-06
9.3010103e-06
1.2877353e-05
2.7434195e-05
5.3718123e-05
9.4318835e-05
0.00013611685
0.00016043239
0.00015163382
0.00011224531
6.0539902e-05
3.3438446e-05
2.0163996e-05
4.2429725e-05
7.1676258e-05
7.5999253e-05
9.4520511e-05
0.00013858579
0.00014589505
0.00012739353
9.4361602e-05
5.8730428e-05
2.8903576e-05
1.2784964e-05
9.9576384e-06
1.0727082e-05
1.0159238e-05
9.5765763e-06
9.1760185e-06
1.0615937e-05
1.7367503e-05
3.337063e-05
6.1206094e-05
0.000102012
0.00014004611
0.00015643733
0.00014182448
0.00010127794
5.7663976e-05
3.9770959e-05
1.7606375e-05
3.1770929e-05
5.8824929e-05
6.6514992e-05
9.0948838e-05
0.00013791929
0.00014993111
0.0001350459
0.00010623408
7.2797585e-05
4.1747061e-05
2.1310439e-05
1.2982056e-05
1.0393494e-05
9.8554673e-06
9.8134066e-06
1.1010243e-05
1.5452239e-05
2.5376515e-05
4.4406946e-05
7.5533569e-05
0.00011476085
0.00014458632
0.00014989224
0.00012824177
8.8519457e-05
5.3197351e-05
3.2770105e-05
2.0666736e-05
4.7350273e-05
5.7185591e-05
8.3360414e-05
0.00013389219
0.00015193689
0.00014290682
0.00012014025
9.1627348e-05
6.1697023e-05
3.7161044e-05
2.3943994e-05
1.8046383e-05
1.535049e-05
1.5598795e-05
1.8998308e-05
2.6585887e-05
4.0856076e-05
6.4448612e-05
9.6933027e-05
0.00012916796
0.00014623741
0.00014094393
0.00011505215
7.7865164e-05
4.3235635e-05
3.0814502e-05
3.7191691e-05
4.771243e-05
7.1972729e-05
0.00012501271
0.0001502416
0.00014795041
0.00013270541
0.00011204464
8.7997458e-05
6.26051e-05
4.4776899e-05
3.580116e-05
3.2502672e-05
3.3133658e-05
3.8619553e-05
4.9678246e-05
6.7653233e-05
9.2355001e-05
0.00011930281
0.00013881212
0.00014230096
0.00012846621
0.00010248589
7.1080146e-05
3.9397292e-05
2.3543924e-05
3.0435107e-05
3.8169544e-05
5.7320768e-05
0.00011056819
0.0001434019
0.00014937339
0.00014006546
0.00012882232
0.00011416825
9.5543905e-05
7.7608199e-05
6.5770121e-05
6.1789566e-05
6.3281608e-05
7.0200896e-05
8.2344492e-05
9.9322435e-05
0.00011855572
0.00013468159
0.00014140224
0.00013581545
0.00012059708
9.6228061e-05
5.8542959e-05
2.7532329e-05
9.3046809e-06
1.0153446e-05
2.7831388e-05
4.0981899e-05
8.9694908e-05
0.00013005858
0.00014514574
0.00014122006
0.00013624998
0.00013271657
0.00012474617
0.00011378531
0.00010409787
9.9488381e-05
0.00010017841
0.00010547789
0.00011482534
0.00012647049
0.00013715396
0.00014301384
0.0001408975
0.0001302943
0.00010788449
6.6781035e-05
2.4868717e-05
1.2866703e-05
2.0158716e-05
2.5716087e-05
6.2960435e-05
0.00010792301
0.00013385932
0.00013634984
0.00013168449
0.00013411029
0.00013839561
0.00013774474
0.00013445872
0.00013146346
0.00013102263
0.00013371258
0.00013892203
0.00014431086
0.00014638238
0.00014442441
0.00013477071
0.00011479008
7.972431e-05
3.8279764e-05
2.635691e-05
1.2271737e-05
3.4534344e-05
7.5095495e-05
0.00011067813
0.00012655912
0.00012201057
0.00012023304
0.00012623221
0.0001362171
0.00014183274
0.00014459871
0.0001465151
0.00014789906
0.00014861018
0.00014736575
0.00014244376
0.00013196493
0.00011173564
7.906085e-05
4.0105875e-05
2.4458294e-05
1.0831829e-05
1.2631265e-05
3.816671e-05
7.0387386e-05
0.0001049874
0.0001096059
0.00010568587
0.00010398261
0.00011053621
0.00012069571
0.00012831457
0.00013255149
0.00013351587
0.00013113274
0.00012480872
0.000113052
9.383419e-05
6.6070316e-05
3.5815254e-05
2.3293911e-05
1.0692186e-05
1.2173544e-05
2.7476091e-05
6.489361e-05
8.4796241e-05
8.846673e-05
8.6095238e-05
8.2090942e-05
8.4161922e-05
9.0147384e-05
9.4312871e-05
9.4604102e-05
9.0240684e-05
8.13103e-05
6.7462038e-05
4.9744245e-05
3.1545256e-05
1.6820636e-05
9.9310443e-06
1.1295028e-05
2.689598e-05
4.4808941e-05
5.4256349e-05
6.6755439e-05
6.6070108e-05
5.9277475e-05
5.4780136e-05
5.192106e-05
4.8897271e-05
4.3812913e-05
3.7652264e-05
3.0007614e-05
2.5189258e-05
1.4373379e-05
1.6755941e-05
1.4053653e-05
3.5268324e-05
4.289657e-05
5.0316399e-05
4.5482368e-05
3.9552405e-05
3.4682063e-05
2.9814949e-05
2.5780329e-05
1.9534544e-05
7.2949571e-06
1.0038032e-05
2.0132832e-05
2.1230072e-05
2.050267e-05
1.6498401e-05
1.2078254e-05
2.7183047e-05
4.2859579e-05
5.0047262e-05
5.3107506e-05
5.2380091e-05
4.4681953e-05
2.8615575e-05
1.8509625e-05
2.5922909e-05
4.7813467e-05
6.1449252e-05
7.499148e-05
8.8705107e-05
0.00010164101
0.00011292879
0.00012150193
0.00012228985
0.0001128596
8.5301637e-05
6.21985e-05
1.646238e-05
9.8791466e-06
1.085413e-05
3.48007e-05
4.8313115e-05
6.0350244e-05
7.1775383e-05
8.2433137e-05
9.2283373e-05
0.00010176076
0.00011241009
0.0001250858
0.00013842231
0.00014908095
0.00014948448
0.00013439495
9.7988748e-05
3.741661e-05
2.0572566e-05
1.2503156e-05
2.505695e-05
3.9000948e-05
5.6766141e-05
7.6027002e-05
9.4016265e-05
0.00010843263
0.00011764407
0.00012150617
0.00012242581
0.00012422352
0.00013132285
0.00014524262
0.00016243189
0.00017065264
0.00016107567
0.00010831362
5.5709407e-05
1.4455413e-05
1.1110125e-05
2.9079026e-05
5.3751497e-05
8.6946674e-05
0.00012192958
0.00015127063
0.00017154982
0.00018268029
0.00018613298
0.00018340825
0.00017566121
0.0001650607
0.00015493609
0.00015074236
0.0001588371
0.00017484028
0.0001865986
0.00016868747
0.00011920312
5.1636909e-05
1.3345041e-05
8.8301749e-06
3.6303534e-05
7.3404194e-05
0.00012083852
0.00016400108
0.00019451814
0.00021165386
0.00021791204
0.00021638869
0.00021017842
0.00020207231
0.00019334653
0.00018458145
0.00017589799
0.00016761496
0.00016428888
0.00017212879
0.00018912576
0.00019544228
0.00016982664
0.00010876314
4.1540301e-05
1.1440399e-05
2.9186564e-05
8.0686023e-05
0.00014285904
0.0001898414
0.00021595981
0.00022552892
0.00022341794
0.00021315565
0.00019844368
0.0001834661
0.0001717271
0.00016473371
0.000161249
0.00016058176
0.00016139933
0.00016300865
0.00016907183
0.00018414862
0.00020112566
0.00019676304
0.00015586253
8.2899908e-05
3.236773e-05
1.0835469e-05
1.9612797e-05
8.3498451e-05
0.00015296761
0.00019886811
0.00021833178
0.00022047902
0.00021199862
0.00019490716
0.00017147035
0.00014706443
0.00012680324
0.00011331799
0.00010756727
0.00010936034
0.00011668034
0.00012792764
0.00014057913
0.00015472308
0.00017378608
0.0001967213
0.00020701314
0.00018507509
0.00012243538
5.5619548e-05
1.8460146e-05
5.6824822e-05
0.00013265398
0.0001870388
0.00020759128
0.00020664833
0.00019711375
0.00018013439
0.00015401708
0.00012335623
9.5204522e-05
7.3647693e-05
5.9874983e-05
5.3990777e-05
5.6815642e-05
6.7241499e-05
8.3317577e-05
0.00010400711
0.00012755751
0.00015455685
0.00018533187
0.00020722405
0.0002004885
0.00015122772
8.0605085e-05
3.0767646e-05
1.4502706e-05
9.8057856e-06
8.2191235e-05
0.00016092526
0.00019331338
0.00019231534
0.00018310555
0.0001729979
0.0001522409
0.00012011269
8.5637865e-05
5.6774077e-05
3.6679234e-05
2.4591123e-05
1.9728135e-05
2.0886908e-05
2.9676356e-05
4.6049579e-05
6.8670744e-05
9.6292733e-05
0.00012938965
0.00016793561
0.00020067147
0.00020658286
0.0001695758
0.00010162511
4.0570109e-05
2.4539907e-05
2.2352706e-05
0.00011678359
0.00017059935
0.00017928162
0.00016905459
0.00016652978
0.00015884931
0.00013303122
9.4747024e-05
5.8128678e-05
3.1390554e-05
1.6792737e-05
1.1742346e-05
1.1187511e-05
1.060159e-05
1.2369132e-05
2.1795216e-05
4.2028173e-05
7.0014739e-05
0.00010550776
0.00014906662
0.00019050121
0.00020675231
0.00017971624
0.00011680715
4.9278653e-05
2.8989805e-05
1.8489818e-05
0.00013172432
0.00016560642
0.00015907125
0.00015367073
0.00016253993
0.00015256121
0.00011880994
7.5775346e-05
3.9981188e-05