/*--------------------------------*- C++ -*----------------------------------*\
| =========                 |                                                 |
| \\      /  F ield         | OpenFOAM: The Open Source CFD Toolbox           |
|  \\    /   O peration     | Version:  2406                                  |
|   \\  /    A nd           | Website:  www.openfoam.com                      |
|    \\/     M anipulation  |                                                 |
\*---------------------------------------------------------------------------*/
FoamFile
{
    version     2.0;
    format      ascii;
    arch        "LSB;label=32;scalar=64";
    class       volScalarField;
    location    "750";
    object      p;
}
// * * * * * * * * * * * * * * * * * * * * * * * * * * * * * * * * * * * * * //

dimensions      [0 2 -2 0 0 0 0];

internalField   nonuniform List<scalar> 
150387
(
0.0033490915
0.0041597388
0.002968839
0.0026796192
0.0025986536
0.0027133184
0.0040570652
0.0042250867
0.0047462929
0.0032759637
0.0019108757
0.00032551516
-0.00086876712
-0.0017946114
-0.0021679965
-0.0020700464
-0.0015338129
-0.00044525786
0.00082984227
0.0018256167
0.0027453236
0.0042444143
0.0020524934
-0.00056381537
-0.0028724975
-0.0049202867
-0.0064932349
-0.0074530572
-0.0077301987
-0.0074098732
-0.0065636058
-0.0052539211
-0.0036688962
-0.0018761696
-0.00015514596
0.0017562779
0.0037659622
0.004552479
0.0034814726
0.00090343601
-0.0021581448
-0.0051271487
-0.007809636
-0.010191353
-0.012102583
-0.013325277
-0.013813471
-0.013554825
-0.01259024
-0.010997839
-0.0089562512
-0.0066102806
-0.0041550026
-0.0016686269
0.00044275354
0.0023395683
0.0055396199
0.0039031536
0.00080504627
-0.00264794
-0.0062227958
-0.0095938759
-0.012643251
-0.015292613
-0.017487522
-0.019060768
-0.019915958
-0.019914472
-0.01901241
-0.017276946
-0.014875021
-0.012024585
-0.0089831637
-0.0059010775
-0.0029760182
-0.00039783206
0.0017853206
0.0042149255
0.0012561244
-0.0025119631
-0.0065063452
-0.010509235
-0.014332823
-0.017843642
-0.020906588
-0.023405878
-0.025296825
-0.026425912
-0.026689805
-0.025948215
-0.024138308
-0.021409064
-0.018036503
-0.014340777
-0.010567601
-0.0069613646
-0.0035424292
-0.00066797631
0.0021678235
0.005126668
0.0022020762
-0.0016205395
-0.0059361431
-0.010456967
-0.015020845
-0.019461889
-0.023623115
-0.027331021
-0.030359733
-0.032532216
-0.033807327
-0.034046911
-0.033301698
-0.03143023
-0.028401421
-0.024477582
-0.020085295
-0.015570849
-0.011219742
-0.0071241162
-0.0034550575
-3.5237299e-05
0.0019237779
0.0066150909
0.003355629
-0.0002272706
-0.0046307297
-0.0094872772
-0.014604177
-0.019840096
-0.025042533
-0.030040228
-0.034631874
-0.038538662
-0.041409447
-0.042907399
-0.042973055
-0.041704618
-0.039344974
-0.03582831
-0.031256333
-0.026061111
-0.020719324
-0.015588763
-0.010794432
-0.006510161
-0.0026197635
0.00027909045
0.004466583
0.0014433918
-0.0027463603
-0.0076612968
-0.013084058
-0.018835254
-0.024809733
-0.030867857
-0.036849417
-0.042601855
-0.047813364
-0.0519149
-0.054233552
-0.05427607
-0.052122676
-0.04854988
-0.043880546
-0.038292341
-0.03211683
-0.025824978
-0.019844811
-0.014333256
-0.0094203965
-0.004969878
-0.0012536413
0.0020186795
0.0031605898
-0.00056079773
-0.0052619932
-0.010650592
-0.016610265
-0.022973666
-0.029668997
-0.036561246
-0.043605
-0.050842056
-0.057768276
-0.063262449
-0.066502516
-0.067159601
-0.064652113
-0.059608185
-0.05299744
-0.045650964
-0.038086828
-0.030683312
-0.023796091
-0.017562115
-0.012042866
-0.0071168798
-0.002774479
0.00068556029
0.0053986178
0.0018172364
-0.0023990237
-0.0075943261
-0.013419873
-0.019847964
-0.026718239
-0.033981991
-0.041569381
-0.049766938
-0.058823642
-0.067274704
-0.073086726
-0.076101416
-0.076884313
-0.075276328
-0.070275913
-0.062406491
-0.053082106
-0.043727213
-0.035013729
-0.027206128
-0.020307985
-0.014258144
-0.0089533098
-0.0042403653
-0.00065803012
0.0040101688
0.00043944328
-0.004072044
-0.0096543906
-0.015817989
-0.0225545
-0.02972185
-0.037284792
-0.045429045
-0.054954917
-0.065797864
-0.074428214
-0.079140686
-0.081283894
-0.081686607
-0.080560684
-0.076679721
-0.069463282
-0.059360211
-0.048459115
-0.038453364
-0.029798586
-0.022359201
-0.015920561
-0.01031118
-0.0053086719
-0.0013102039
0.0014105489
0.0033984563
-0.00057152339
-0.0054286248
-0.011292414
-0.017641383
-0.024472805
-0.031658706
-0.039282548
-0.047989009
-0.05884756
-0.070516335
-0.077973626
-0.081671139
-0.083438783
-0.083356652
-0.082668194
-0.079419976
-0.07318753
-0.063329587
-0.051550366
-0.040560592
-0.031321012
-0.023593268
-0.016978719
-0.011172348
-0.0060157194
-0.0018435518
0.0015767196
0.0030101915
-0.00096736055
-0.0063256705
-0.012364666
-0.01870524
-0.025419948
-0.032378489
-0.040032305
-0.049310617
-0.060941981
-0.072094884
-0.07876009
-0.08283517
-0.084284734
-0.083334757
-0.082797145
-0.079882279
-0.074204402
-0.064622462
-0.052356074
-0.041038899
-0.031822731
-0.024140444
-0.017489037
-0.011570592
-0.0062043804
-0.0018886123
0.0011706082
0.0030825724
-0.0011408826
-0.0066609122
-0.012779963
-0.01890871
-0.025313781
-0.031955081
-0.0396256
-0.049051725
-0.060363918
-0.070770444
-0.077464981
-0.08140112
-0.084250362
-0.082710742
-0.081827815
-0.078914876
-0.073343412
-0.063318602
-0.051055667
-0.040249782
-0.031442289
-0.02398477
-0.017394502
-0.011418892
-0.006132778
-0.0016034805
0.0014451888
0.0039026692
-0.00069070339
-0.0063986517
-0.012439748
-0.018230268
-0.024232869
-0.030596432
-0.038069747
-0.047042287
-0.057306282
-0.067292041
-0.074512939
-0.078445151
-0.080091418
-0.08033696
-0.079330256
-0.076294189
-0.070247561
-0.059926249
-0.048323325
-0.038428969
-0.03025555
-0.023103347
-0.016620964
-0.010657045
-0.0054396468
-0.0010887899
0.0018543854
0.0049568679
7.6003063e-05
-0.0055081954
-0.011357246
-0.016736771
-0.022333367
-0.028388243
-0.035471833
-0.043506583
-0.052331978
-0.061375418
-0.069024537
-0.073798744
-0.075875029
-0.076103582
-0.07485117
-0.071252856
-0.064453325
-0.054520642
-0.044398418
-0.035769414
-0.028303528
-0.021470323
-0.015155838
-0.0093404248
-0.004316328
-0.00072808564
0.0017565489
0.0052833139
0.0012636561
-0.0039446198
-0.0094824586
-0.01452155
-0.019759287
-0.02549033
-0.031946717
-0.03892059
-0.046175721
-0.053511745
-0.060391791
-0.065666759
-0.06844014
-0.068967276
-0.067385426
-0.063265965
-0.056460432
-0.047996982
-0.039768914
-0.032385717
-0.025547405
-0.019082061
-0.01306448
-0.007587756
-0.0028528378
0.00041593112
0.0026101274
-0.0019032592
-0.0070187411
-0.011772545
-0.016678792
-0.021952759
-0.027710547
-0.033749325
-0.039710877
-0.04530497
-0.050389271
-0.054605099
-0.057371498
-0.058370159
-0.057031458
-0.053321348
-0.047746858
-0.041229391
-0.034668643
-0.028276813
-0.022042546
-0.016071247
-0.010502699
-0.0054995667
-0.0011805826
0.0015759346
0.0040786222
0.00044735163
-0.0042237803
-0.0086265964
-0.013161872
-0.017916535
-0.023011092
-0.028251934
-0.033304531
-0.037780721
-0.041495029
-0.044383453
-0.046295932
-0.046961061
-0.046163545
-0.043546534
-0.039479289
-0.034535244
-0.029166112
-0.023612252
-0.018066163
-0.012699096
-0.0076807572
-0.0033553864
0.00026627724
0.0031283891
0.0029936721
-0.0011774257
-0.0051571541
-0.0093123298
-0.013574595
-0.018039407
-0.022574946
-0.02693556
-0.030752195
-0.033757723
-0.035880194
-0.037141445
-0.037459111
-0.036738663
-0.034889964
-0.031869257
-0.027955694
-0.023497277
-0.018736186
-0.013896089
-0.0091865541
-0.0048042308
-0.00094298411
0.0014966529
0.0045417244
0.0014998226
-0.0016617816
-0.0053452415
-0.0090991844
-0.012996593
-0.016908366
-0.020663726
-0.02399705
-0.026631994
-0.02841396
-0.029352656
-0.02947348
-0.028760512
-0.027269003
-0.024881383
-0.021719201
-0.018005176
-0.013961263
-0.0098137919
-0.0057722461
-0.0022499001
0.00083440684
0.0016053253
0.0039782951
0.0014279911
-0.0015001091
-0.004728851
-0.0080624852
-0.011409144
-0.014645062
-0.017532244
-0.019882898
-0.021507512
-0.022342482
-0.022416138
-0.021779771
-0.020500697
-0.018550241
-0.015945145
-0.012846633
-0.0094143451
-0.0059281767
-0.0027359214
0.00020947585
0.0027704103
0.0037646909
0.0015626938
-0.000761717
-0.0034815391
-0.0062863901
-0.0090468263
-0.011541121
-0.013629998
-0.015131847
-0.015949448
-0.016066832
-0.0155231
-0.014438283
-0.012841545
-0.010716119
-0.0081683336
-0.0053065182
-0.002645975
8.9758468e-08
0.0019177513
0.0039149746
0.0025882411
0.00034426881
-0.0017721028
-0.0040205344
-0.006086982
-0.0078764775
-0.0092171033
-0.010035394
-0.010263627
-0.0098917435
-0.0090492567
-0.0077406148
-0.0059999564
-0.0039692819
-0.0015446293
0.00033819861
0.0026768298
0.0043870995
0.003156116
0.0018745417
0.00012398023
-0.0015646923
-0.0030537537
-0.0041508646
-0.0048314723
-0.0050580695
-0.0047699907
-0.0041771483
-0.0031376733
-0.001889172
-0.0005381319
0.0010350213
0.0010666998
0.0044483284
0.002853179
0.0016055938
0.00085763298
0.00013984599
-0.00045982361
-0.00073525353
-0.00060501764
-0.00035243994
0.00045597035
0.0010943206
0.0022769172
0.003618121
0.0031529455
0.0028076686
0.0025790661
0.0033196163
0.0021075928
0.0043203679
0.004492041
0.0043492442
0.0025204978
0.0022238158
0.0021427143
0.0022537315
0.0040358646
0.0044160136
0.0048552305
0.0018643548
0.00058997189
-0.00096738933
-0.0020968321
-0.0030962516
-0.0033291834
-0.003079524
-0.0023918616
-0.0010744235
0.00028806021
0.0013759522
0.0029072809
0.0048958735
0.0045823164
0.0039552268
0.00055916226
-0.0019826101
-0.0042689153
-0.0062560247
-0.0076650651
-0.0085075401
-0.008668354
-0.0082352114
-0.0072970727
-0.0058879268
-0.0042909375
-0.0023123905
-0.00083467389
0.0016744245
0.003952997
0.0049956537
0.0022489415
-0.00036361011
-0.0037868253
-0.0067197675
-0.0092946335
-0.011498295
-0.013220432
-0.014381463
-0.014811693
-0.014458685
-0.013395132
-0.011700434
-0.0095837025
-0.0071277359
-0.0045284632
-0.0019079786
-5.5286142e-05
0.0026025695
0.0053529589
0.0027062024
-0.0002082578
-0.0040757936
-0.0077884541
-0.011168985
-0.014184861
-0.016754687
-0.018802229
-0.020243681
-0.020984994
-0.020848682
-0.019817643
-0.017931253
-0.015421616
-0.012487929
-0.0094056934
-0.0062386712
-0.0030318345
-0.0005797966
0.0022660839
0.0057802233
0.0028468336
0.00023363901
-0.0040929795
-0.0082160529
-0.012312313
-0.016157936
-0.019659078
-0.022705398
-0.02514214
-0.026876463
-0.027822725
-0.027841008
-0.026888882
-0.024879253
-0.021971631
-0.018434826
-0.014658443
-0.01080823
-0.0071813523
-0.0034432897
-0.00090024606
0.0020932066
0.00485542
0.0012319456
-0.0030741254
-0.0075890828
-0.012262853
-0.016929721
-0.021439551
-0.025682304
-0.029490061
-0.032588961
-0.034709409
-0.035749606
-0.035648558
-0.034513167
-0.032291752
-0.028995454
-0.024845677
-0.020314406
-0.015696596
-0.011343873
-0.0071426488
-0.0034137105
0.00031878774
0.001206077
0.0064179155
0.0018914151
-0.0015837646
-0.0063203113
-0.011329036
-0.01656835
-0.021910946
-0.027238917
-0.03243427
-0.037293916
-0.041400748
-0.044321397
-0.045570572
-0.0451978
-0.043416259
-0.0405167
-0.036528927
-0.03161148
-0.026211143
-0.020731998
-0.015588521
-0.010744646
-0.0065562529
-0.0025035904
-7.9487719e-05
0.0036587455
0.00032801879
-0.0042717488
-0.0093785594
-0.014943298
-0.020820873
-0.026946813
-0.033221426
-0.039575368
-0.045798899
-0.051281194
-0.055322662
-0.057260184
-0.056762299
-0.054071433
-0.049946409
-0.044720106
-0.038659954
-0.032178277
-0.025707084
-0.019699064
-0.014142341
-0.0093442711
-0.0046872387
-0.0013002127
0.0016252019
0.0062250477
0.0022375278
-0.0018913807
-0.0068959486
-0.012381563
-0.018462502
-0.024959697
-0.031838619
-0.039058402
-0.046678823
-0.054470417
-0.06139168
-0.066371285
-0.068902552
-0.06880136
-0.065854133
-0.060485694
-0.053594928
-0.045925158
-0.038053288
-0.030430614
-0.023491842
-0.017229381
-0.011805641
-0.0067722585
-0.002345515
0.0010862821
0.0050121483
0.0006596829
-0.0037254692
-0.0091964135
-0.015048929
-0.021602181
-0.028608258
-0.036092153
-0.04417178
-0.053110851
-0.062424524
-0.070179037
-0.075068245
-0.077302039
-0.077356961
-0.07519038
-0.069953517
-0.062084798
-0.052852602
-0.04345329
-0.034603497
-0.026746661
-0.019841685
-0.013889679
-0.0085754168
-0.0036736947
-0.00089150728
0.0035576306
-0.0008680014
-0.0054190241
-0.011187106
-0.017324157
-0.024165697
-0.031432726
-0.039312954
-0.048177311
-0.058421622
-0.068792159
-0.076352763
-0.080444744
-0.082103797
-0.081960327
-0.080398536
-0.075866455
-0.068335994
-0.058361318
-0.04773745
-0.037817074
-0.029194004
-0.021790008
-0.015445272
-0.0098870432
-0.0046671751
-0.0015349118
0.0017681632
0.003032369
-0.0020898492
-0.0067719881
-0.01267213
-0.018973959
-0.025870494
-0.033147333
-0.041293582
-0.050891115
-0.062116201
-0.072537121
-0.078942972
-0.081647039
-0.083347672
-0.083400806
-0.082540091
-0.078554774
-0.071732197
-0.061736121
-0.050377166
-0.039705166
-0.030631888
-0.022968101
-0.016446209
-0.01068668
-0.0055976166
-0.0020888426
0.0019408387
0.0014236146
-0.0020639935
-0.0076364652
-0.013540438
-0.019829316
-0.026563968
-0.033728972
-0.042132757
-0.052212514
-0.063530737
-0.073250257
-0.079382423
-0.083148815
-0.08452737
-0.083554759
-0.082520564
-0.078953314
-0.072465001
-0.062531465
-0.050832004
-0.040079095
-0.031007962
-0.023343128
-0.016772334
-0.010964107
-0.0054441922
-0.001794613
0.0014922369
0.0025962771
-0.0024955073
-0.0077960842
-0.013755093
-0.019800052
-0.026216254
-0.033204749
-0.041567543
-0.051563012
-0.062280773
-0.071560745
-0.077667046
-0.081699958
-0.08444903
-0.082891822
-0.081386531
-0.077773132
-0.071060726
-0.060822177
-0.049305747
-0.0390523
-0.030398686
-0.022976315
-0.016496912
-0.010577671
-0.0056700938
-0.0018014574
0.0018554397
0.0033160433
-0.0017383998
-0.0073857806
-0.013168002
-0.018897438
-0.024965079
-0.031710567
-0.039728759
-0.048940754
-0.058781325
-0.067856694
-0.074605934
-0.078360427
-0.079877709
-0.079756204
-0.078322147
-0.074364301
-0.067192111
-0.057002969
-0.04639532
-0.037032688
-0.028998406
-0.021893535
-0.015542997
-0.0096004074
-0.0047423157
-0.0013239681
0.0025159799
0.004329598
-0.00090832955
-0.0063739287
-0.011878657
-0.017233895
-0.022946013
-0.029307206
-0.036675049
-0.044816044
-0.05340819
-0.061714337
-0.068628938
-0.073105092
-0.075007561
-0.074804537
-0.072879803
-0.068368319
-0.060988389
-0.051677204
-0.042460867
-0.034203161
-0.026840381
-0.020079135
-0.013928431
-0.0081911991
-0.0033620371
-0.00068493185
0.0050517161
0.00039614402
-0.0047227489
-0.009960066
-0.014948905
-0.020297686
-0.02613635
-0.032702068
-0.039702898
-0.046857789
-0.053773306
-0.059936876
-0.064590287
-0.067068536
-0.067008742
-0.064750139
-0.060088769
-0.053373254
-0.045564525
-0.037867547
-0.030674018
-0.023943824
-0.017593524
-0.011770786
-0.0064738044
-0.001854732
8.8995407e-05
0.0014723399
-0.0026704045
-0.007579685
-0.012157108
-0.017117569
-0.022362041
-0.028132387
-0.034103231
-0.039987414
-0.045435127
-0.050224238
-0.054001608
-0.056373683
-0.056685796
-0.054761971
-0.050806044
-0.04537634
-0.039144528
-0.032768928
-0.026487324
-0.020375006
-0.014547049
-0.0091826641
-0.0043708827
-0.00059632026
0.0018896158
0.0042732628
-0.00032694879
-0.0047975397
-0.0089453156
-0.013492947
-0.018168173
-0.023214798
-0.028327135
-0.033257509
-0.037629305
-0.041268782
-0.044040338
-0.045778531
-0.046066263
-0.044726307
-0.041764675
-0.037600667
-0.032654974
-0.027336975
-0.02186574
-0.016430723
-0.011253947
-0.0063713268
-0.0026574188
3.2853082e-05
0.0029144749
0.0047083201
0.0028436373
-0.0015339781
-0.0053692019
-0.00955669
-0.013690424
-0.018103852
-0.022492402
-0.026702427
-0.030355656
-0.033268393
-0.035339575
-0.036542497
-0.036718726
-0.035697339
-0.033470109
-0.030234634
-0.026244545
-0.021786301
-0.017076273
-0.01236607
-0.0078687192
-0.0035870108
-2.9062481e-05
0.001343771
0.0040245032
0.0010002207
-0.0015884481
-0.0055437575
-0.0091389118
-0.01296978
-0.016733929
-0.020368656
-0.023526322
-0.026023489
-0.027715042
-0.028609223
-0.02867174
-0.027827292
-0.026073744
-0.023491464
-0.020237044
-0.01651435
-0.012526053
-0.0085152006
-0.0044264119
-0.0016099069
0.0009791276
0.004326214
0.0011738398
-0.0013541682
-0.0047309191
-0.008025383
-0.01120012
-0.014305347
-0.017039721
-0.019256955
-0.020762159
-0.021541064
-0.0215787
-0.020876363
-0.019442197
-0.017314272
-0.014623695
-0.011520393
-0.0081069252
-0.0045633432
-0.0018491268
0.00023762818
0.0024296915
0.0041719622
0.0011829411
-0.00054029849
-0.0033427212
-0.0061079514
-0.0087966628
-0.011160934
-0.013148768
-0.014532252
-0.015277751
-0.015350949
-0.014760514
-0.013587934
-0.011866613
-0.0097228468
-0.0071983017
-0.004244144
-0.0019727728
8.0488295e-05
0.0018032137
0.0041621016
0.0028854202
3.5794604e-05
-0.001525675
-0.0037652202
-0.0056394356
-0.0073706982
-0.0086486585
-0.0094348907
-0.0096526607
-0.0092324995
-0.0082795393
-0.0067952319
-0.005015622
-0.0030390484
-0.00017180566
0.00056046759
0.0020258061
0.0043070222
0.0032725786
0.0017215541
0.00034628951
-0.0012893219
-0.0028762064
-0.0039073309
-0.0045171861
-0.004659609
-0.0040802465
-0.003356199
-0.0022639919
-0.0014325978
-0.00052943248
0.0022050271
0.0045466954
0.0026961693
0.0016876726
0.00090232897
0.00019340838
-0.00037247686
-0.00062897421
-0.00057064998
-0.00011212574
0.00044266913
0.0019410985
0.0011285524
0.0037145107
0.0033748127
0.0027462691
0.0028693135
0.0027982227
0.0039005595
0.0040150636
0.0040609923
0.0019377037
0.0017040248
0.0016512493
0.0017767416
0.0037439087
0.0040839996
0.0043321818
0.0013318162
0.00021271598
-0.0012561843
-0.0023929372
-0.0034593091
-0.0036777189
-0.0033806369
-0.0026398279
-0.0012558262
0.00010203702
0.0011724882
0.0028814974
0.0047929066
0.0042752882
0.0036832225
0.00019727363
-0.0023104062
-0.0045269094
-0.0064734012
-0.0078705385
-0.0086578309
-0.0087395241
-0.008265432
-0.0073189236
-0.0059185878
-0.0043691087
-0.0024100502
-0.0010431523
0.0016137944
0.003880701
0.0046681504
0.0018893513
-0.00062318828
-0.0041336668
-0.0070812977
-0.0096128398
-0.011753369
-0.013362798
-0.014430861
-0.014765467
-0.014355787
-0.01327679
-0.011591725
-0.0095317565
-0.0071279157
-0.004563859
-0.0019244528
-0.00026241777
0.0026336791
0.0050496755
0.0025523387
-0.00026793596
-0.0043007082
-0.0081350774
-0.011544472
-0.014548881
-0.017093716
-0.019065944
-0.020394315
-0.020988685
-0.020716762
-0.019620346
-0.017747205
-0.01530044
-0.012425396
-0.0094074029
-0.0062512543
-0.0030087949
-0.00069921794
0.0022291592
0.0052386204
0.0026107599
0.00023758518
-0.0043122115
-0.0085606671
-0.012711482
-0.016577624
-0.020084763
-0.023134109
-0.025559903
-0.027205651
-0.028009066
-0.027831639
-0.026712057
-0.0246368
-0.021767052
-0.01832662
-0.01463853
-0.010824813
-0.0072190962
-0.0034175893
-0.0010973693
0.0020875769
0.0050557802
0.0012445734
-0.003216808
-0.0078552478
-0.012593967
-0.017287156
-0.021813597
-0.026082564
-0.029934873
-0.033077121
-0.035219182
-0.036161194
-0.035888599
-0.034542307
-0.032131722
-0.02876853
-0.024682293
-0.02026481
-0.01572948
-0.011424586
-0.007172433
-0.0035111691
0.00031390521
0.00038931648
0.0064034718
0.0016902593
-0.0016724036
-0.006516925
-0.011597037
-0.01684882
-0.022185209
-0.027520989
-0.03276135
-0.037695553
-0.041850578
-0.044783328
-0.045981981
-0.04550863
-0.043633713
-0.040541736
-0.036395526
-0.031453021
-0.026141131
-0.020764418
-0.01570321
-0.010840863
-0.0066783161
-0.0025739917
-0.00036787037
0.003600127
0.00026468803
-0.0043835168
-0.0095463156
-0.015135004
-0.020988586
-0.027091006
-0.033383751
-0.039819606
-0.046124388
-0.051563202
-0.055478335
-0.057297624
-0.056755729
-0.054200278
-0.050090358
-0.044746623
-0.038596825
-0.032145582
-0.025756772
-0.019832704
-0.014272143
-0.0094798367
-0.0047443048
-0.0014247721
0.0014503891
0.0059405089
0.0020977573
-0.0019950234
-0.0070087366
-0.012500999
-0.018556598
-0.025004576
-0.031873571
-0.039160439
-0.046910596
-0.054687912
-0.061315659
-0.065995006
-0.06832584
-0.06808642
-0.065335676
-0.060332832
-0.053637467
-0.045977085
-0.03811031
-0.030537985
-0.023653877
-0.017379717
-0.011928897
-0.0067886223
-0.0023865156
0.0010696977
0.0049287764
0.00045666017
-0.0038287245
-0.0092711067
-0.015104472
-0.021592916
-0.028560119
-0.036102353
-0.044328949
-0.053367542
-0.062376835
-0.069620451
-0.074368341
-0.076697443
-0.076720019
-0.074337538
-0.069208769
-0.061768815
-0.052844105
-0.043570728
-0.034780943
-0.026949584
-0.020009187
-0.014004582
-0.0086040104
-0.003661344
-0.0011071156
0.0032193302
-0.0011716667
-0.005552985
-0.011238087
-0.017328185
-0.024099689
-0.031393804
-0.039431379
-0.048464856
-0.058578522
-0.068308676
-0.075625732
-0.079857208
-0.081813005
-0.08163909
-0.07979604
-0.074996259
-0.067649151
-0.05813306
-0.047831997
-0.038043212
-0.029437539
-0.021974382
-0.015553029
-0.009934371
-0.0046871785
-0.0018608103
0.0018521738
0.0026437459
-0.0024580739
-0.0069310033
-0.012714533
-0.018951165
-0.025809207
-0.033227674
-0.04158974
-0.051238673
-0.061988195
-0.071850582
-0.078511266
-0.08139609
-0.083303445
-0.083441912
-0.082341925
-0.077988655
-0.071014187
-0.061336772
-0.050413268
-0.039958428
-0.030887901
-0.023132447
-0.016523409
-0.010734643
-0.0057281035
-0.0023241191
0.0020177446
0.00087625835
-0.002418677
-0.0078462424
-0.013591524
-0.019833381
-0.02659687
-0.03400024
-0.042570084
-0.052539533
-0.063314368
-0.072727733
-0.079094247
-0.083363835
-0.084839999
-0.083715906
-0.082517807
-0.078591208
-0.071820373
-0.062050138
-0.050853872
-0.040315998
-0.03123171
-0.023462853
-0.016783824
-0.010964915
-0.0054907226
-0.0020245316
0.0014312346
0.0020740545
-0.0029645644
-0.0080517816
-0.013848081
-0.019883734
-0.026394939
-0.033638357
-0.042104025
-0.051931514
-0.062171977
-0.071076676
-0.077206392
-0.081838783
-0.084684977
-0.083060943
-0.081285558
-0.077280343
-0.070378409
-0.060455422
-0.049435743
-0.039299755
-0.030566452
-0.023011104
-0.016440827
-0.010512196
-0.0057512148
-0.0019229126
0.001839778
0.0026425729
-0.0021375565
-0.007674515
-0.013317834
-0.019084426
-0.025272512
-0.032206313
-0.040260626
-0.04935317
-0.058857354
-0.067487083
-0.074086146
-0.078078935
-0.079844066
-0.079649398
-0.077985978
-0.073677955
-0.066637508
-0.056955704
-0.046634295
-0.037241454
-0.029060274
-0.021823126
-0.015419194
-0.0094892856
-0.0047900065
-0.0015061361
0.0024028979
0.0038646782
-0.0013028921
-0.006678891
-0.012112056
-0.017518303
-0.023346618
-0.029789115
-0.037145303
-0.045246518
-0.053708158
-0.061678553
-0.068179558
-0.072587907
-0.07467116
-0.07444996
-0.072349203
-0.067791565
-0.060801768
-0.051863846
-0.042679691
-0.034286215
-0.026774265
-0.019932511
-0.013764366
-0.0080747575
-0.0033209658
-0.0008057262
0.0046231341
-9.0076757e-05
-0.0050419953
-0.010277781
-0.015302301
-0.020724013
-0.026570013
-0.033094806
-0.040069372
-0.04724212
-0.054100265
-0.059998153
-0.064259027
-0.066513105
-0.066510059
-0.064354031
-0.059905405
-0.053493695
-0.045779172
-0.037962949
-0.030624621
-0.023805547
-0.017434758
-0.011622183
-0.006418546
-0.0018459277
-0.00013323729
0.00080825015
-0.0030616742
-0.0079648369
-0.012543633
-0.017540762
-0.022753603
-0.028453025
-0.034361761
-0.040267848
-0.045789766
-0.050584505
-0.054225178
-0.056381695
-0.056638145
-0.054785976
-0.050944442
-0.045577186
-0.039264965
-0.032754405
-0.026381817
-0.020243836
-0.014423462
-0.0090868333
-0.0043735046
-0.00065018984
0.0019014016
0.0039520218
-0.00078704518
-0.0051994674
-0.0093200347
-0.013898313
-0.018523276
-0.023490695
-0.028510937
-0.033415316
-0.037847787
-0.041579902
-0.044377835
-0.04606523
-0.04633621
-0.044985632
-0.041997044
-0.037770222
-0.032721675
-0.027317025
-0.021810249
-0.016368824
-0.011190648
-0.0063415921
-0.0027691027
-0.00013419517
0.0030886178
0.0047629472
0.0024337222
-0.0018793951
-0.0056536336
-0.0099071849
-0.014003425
-0.018351858
-0.02264177
-0.02678602
-0.03045087
-0.033446116
-0.035607037
-0.036851967
-0.037037076
-0.03599847
-0.033708801
-0.030397615
-0.026335576
-0.021830511
-0.017090903
-0.012348445
-0.0078465194
-0.0035748156
-5.2450071e-05
0.0011911606
0.0038675425
0.0005566656
-0.0017368736
-0.0057883439
-0.0093780829
-0.013182353
-0.016868727
-0.020425358
-0.023548091
-0.02607836
-0.027847282
-0.028815679
-0.02892259
-0.028089567
-0.026308754
-0.023685069
-0.020397016
-0.016637268
-0.012596798
-0.0085443811
-0.0044081525
-0.0017691643
0.0010535814
0.0042284882
0.0009486856
-0.0014165941
-0.0048754246
-0.00816964
-0.011291768
-0.014348333
-0.017036855
-0.019256383
-0.020808007
-0.021656661
-0.021758696
-0.021083347
-0.019648486
-0.017502226
-0.014788686
-0.011640546
-0.0081587379
-0.0045607456
-0.0019630866
0.00027005103
0.0024575701
0.0042243934
0.00092255413
-0.00057132734
-0.0034173019
-0.0061543852
-0.0088105867
-0.011130897
-0.013124914
-0.014540422
-0.015342229
-0.015472071
-0.014918871
-0.013773601
-0.012060377
-0.0099237394
-0.0073742317
-0.0043783996
-0.0021811552
5.8372193e-05
0.0019436461
0.0042846645
0.0029894813
-0.00014970474
-0.0015701162
-0.0038073201
-0.0056380846
-0.007372887
-0.0086616397
-0.0094903043
-0.0097764908
-0.0093821996
-0.0084083132
-0.0069189264
-0.0051671552
-0.0031582778
-0.00025214824
0.00063068766
0.0018230188
0.0041724537
0.0033426379
0.0016602489
0.00027499438
-0.0013495323
-0.0030074703
-0.0040917336
-0.0047498013
-0.0048936515
-0.0042289888
-0.0034777087
-0.0024424289
-0.0016921665
-0.00061647354
0.0023673209
0.0044718148
0.0025691023
0.0015794914
0.00075808426
6.3142676e-05
-0.00049716855
-0.00074146401
-0.00077357838
-0.00017047775
0.0002548901
0.0019890601
0.0010322028
0.0036580852
0.0032580463
0.0025956023
0.0027948958
0.0027013281
0.0033773291
0.0033694155
0.0034890822
0.0013054269
0.001128211
0.0011343109
0.0013364016
0.0033303078
0.0037278918
0.0037672986
0.00058570656
-0.00039769798
-0.0018172505
-0.0028881253
-0.0039581782
-0.0041275398
-0.0037623035
-0.0029672015
-0.0014958535
-6.6467925e-05
0.0010444144
0.002827717
0.004592148
0.0037676286
0.0032804405
-0.0003845651
-0.0028882852
-0.0050529978
-0.0069340228
-0.0082510461
-0.0089531654
-0.008948425
-0.0084127102
-0.0074346119
-0.005999646
-0.0044509402
-0.002437916
-0.0011582438
0.0017209899
0.0034954138
0.004151466
0.0013296365
-0.0011440381
-0.0047498474
-0.0076717085
-0.010124272
-0.012171831
-0.013668866
-0.014627759
-0.014856736
-0.014374802
-0.013268417
-0.011576517
-0.009538641
-0.0071306947
-0.0045727699
-0.0018508759
-0.00038910549
0.0025680151
0.0045601365
0.0022274435
-0.00056031648
-0.004749651
-0.0086739193
-0.012088678
-0.015062628
-0.017560828
-0.019461087
-0.020673022
-0.021126473
-0.020726475
-0.019552517
-0.017653488
-0.015247254
-0.012403098
-0.0094266388
-0.0062368075
-0.0029326348
-0.0007038749
0.002204472
0.0045658769
0.0022942996
7.7160523e-05
-0.0047485619
-0.0091024724
-0.013291675
-0.017161008
-0.020662061
-0.023701336
-0.026102232
-0.027667785
-0.0283441
-0.028005456
-0.026749422
-0.024587833
-0.021709719
-0.018293537
-0.014671379
-0.010858394
-0.0072577659
-0.0033320785
-0.0011637527
0.0020941277
0.0053697021
0.0012399857
-0.0034868075
-0.0082738375
-0.013071465
-0.017799115
-0.022350287
-0.02664889
-0.03053149
-0.033688785
-0.035822793
-0.036685676
-0.036271689
-0.034769308
-0.032215439
-0.028779909
-0.024679163
-0.020308161
-0.015803275
-0.011532664
-0.0071799827
-0.0035582029
0.00044572576
-0.00035746964
0.0063793814
0.0015526458
-0.0018336639
-0.0068452242
-0.012005172
-0.017284993
-0.022650453
-0.028027547
-0.033317764
-0.038281477
-0.042425489
-0.045335862
-0.046497744
-0.045954228
-0.043992488
-0.040770254
-0.036522283
-0.03152826
-0.026230747
-0.020875558
-0.015864008
-0.010941543
-0.0068096873
-0.0025579402
-0.00048610394
0.0037047256
0.00026134942
-0.0045517515
-0.0098241014
-0.015446718
-0.021324516
-0.027476195
-0.033841696
-0.040326551
-0.046589704
-0.051906818
-0.055697739
-0.057428397
-0.056893089
-0.054382243
-0.050267414
-0.044907856
-0.038741908
-0.032300213
-0.025919127
-0.020031502
-0.014421924
-0.009653275
-0.0047877596
-0.0015790209
0.0012928289
0.0056546376
0.0020010503
-0.00211684
-0.0072158726
-0.01273398
-0.018792177
-0.025273496
-0.032224608
-0.039605054
-0.047343347
-0.054922245
-0.061298948
-0.06579387
-0.068011153
-0.067736339
-0.065035964
-0.060148854
-0.053608958
-0.046082049
-0.038303509
-0.030754087
-0.023891187
-0.01756169
-0.012105275
-0.0068450783
-0.0024762745
0.00099740998
0.0046615552
0.00022678892
-0.003987032
-0.0094496778
-0.015255576
-0.021756209
-0.028791137
-0.036461784
-0.044784439
-0.053688734
-0.062338372
-0.069337803
-0.074024299
-0.076333552
-0.076222597
-0.073738783
-0.068671632
-0.061440602
-0.052787324
-0.043739436
-0.035037438
-0.0272232
-0.020221034
-0.014177032
-0.0086893378
-0.0037357134
-0.0013051348
0.0029123736
-0.0015256116
-0.0057809391
-0.011411384
-0.017432575
-0.024238386
-0.03164827
-0.039860507
-0.048956819
-0.058776139
-0.068077889
-0.075321228
-0.079588292
-0.081676694
-0.081410458
-0.079443685
-0.0744718
-0.067186124
-0.057922343
-0.047945802
-0.038324079
-0.029740917
-0.022204536
-0.015706556
-0.010029513
-0.0047483147
-0.0021029521
0.0017501479
0.0021977839
-0.0028864444
-0.007217953
-0.012883047
-0.019050862
-0.025976357
-0.033562596
-0.042121309
-0.051752907
-0.062058287
-0.071598728
-0.078371057
-0.08129178
-0.083326597
-0.083503545
-0.082243885
-0.07765203
-0.070560279
-0.061041295
-0.050491361
-0.040263202
-0.031206419
-0.023346306
-0.016639954
-0.0108229
-0.0058369213
-0.0025449427
0.0019414992
0.00019856096
-0.0028606834
-0.0082003932
-0.013774302
-0.01997998
-0.026847245
-0.034454338
-0.043187711
-0.053029902
-0.063317146
-0.072573149
-0.07904483
-0.083636848
-0.085308757
-0.083961714
-0.082602735
-0.078329477
-0.07135884
-0.061751552
-0.050974513
-0.040641011
-0.031529513
-0.023635653
-0.016842572
-0.010996284
-0.0054856849
-0.0023299487
0.001309781
0.0014449975
-0.0035511934
-0.0084741912
-0.014085761
-0.020116781
-0.026762645
-0.034187675
-0.042785392
-0.052401235
-0.062227053
-0.070959054
-0.077073956
-0.082030731
-0.085188125
-0.083304304
-0.081355768
-0.076971665
-0.069903839
-0.060252748
-0.049648204
-0.039639054
-0.030820075
-0.023113137
-0.016438442
-0.010484851
-0.0058108826
-0.0022172709
0.001769895
0.0019332166
-0.0027303574
-0.0081655428
-0.013620414
-0.019394791
-0.025740763
-0.032818306